/*--------------------------------*- C++ -*----------------------------------*\
  =========                 |
  \\      /  F ield         | OpenFOAM: The Open Source CFD Toolbox
   \\    /   O peration     | Website:  https://openfoam.org
    \\  /    A nd           | Version:  11
     \\/     M anipulation  |
\*---------------------------------------------------------------------------*/
FoamFile
{
    format      ascii;
    class       volScalarField;
    location    "16";
    object      C;
}
// * * * * * * * * * * * * * * * * * * * * * * * * * * * * * * * * * * * * * //

dimensions      [0 0 0 0 0 0 0];

internalField   nonuniform List<scalar> 
400
(
0.0183966
0.0277043
0.047965
0.0480727
0.0413037
0.0389007
0.0381113
0.0382574
0.0389994
0.0400882
0.0413583
0.0426807
0.0439426
0.0450256
0.0458334
0.0462556
0.0462621
0.0458053
0.0449132
0.0436739
0.0312808
0.0412967
0.0479056
0.0422501
0.0368242
0.0359005
0.0377108
0.0416924
0.047017
0.0528127
0.0582851
0.0627602
0.0657028
0.066832
0.0660621
0.0634894
0.0596633
0.0553518
0.0515994
0.0492935
0.0383912
0.046377
0.0436407
0.0354942
0.0321548
0.0348049
0.0424408
0.0539254
0.0674003
0.0808629
0.0923823
0.100367
0.103754
0.102259
0.0961649
0.0864764
0.0748655
0.0634759
0.0546936
0.0503554
0.0421781
0.04658
0.037962
0.0290125
0.0279864
0.0355364
0.0512191
0.073231
0.0982236
0.12211
0.140835
0.151418
0.152561
0.144867
0.130173
0.111161
0.0906634
0.0715229
0.0568969
0.0496949
0.0441843
0.0452327
0.0325298
0.0228981
0.023839
0.036867
0.0622655
0.0974138
0.13652
0.172004
0.196658
0.205992
0.199605
0.180809
0.154975
0.12733
0.100996
0.0773057
0.0585337
0.0490979
0.0453699
0.0440683
0.0282178
0.0174418
0.0197651
0.0384644
0.074873
0.125261
0.180242
0.227214
0.254692
0.256779
0.235537
0.199768
0.160852
0.127194
0.100784
0.078393
0.0588143
0.0483636
0.0462277
0.0438769
0.0257239
0.0135428
0.0169084
0.0415393
0.0902659
0.158161
0.231261
0.290118
0.317138
0.304812
0.259954
0.201189
0.147666
0.110494
0.0893344
0.0742411
0.0576226
0.0475261
0.0469091
0.0450306
0.025719
0.0124803
0.0170681
0.0480248
0.110165
0.197761
0.291844
0.364089
0.387757
0.352911
0.275334
0.189691
0.121846
0.0829444
0.0696309
0.0655732
0.0550791
0.0465952
0.04743
0.0475437
0.0286946
0.0154119
0.021783
0.0589422
0.133721
0.240334
0.355758
0.442222
0.460445
0.395504
0.279847
0.169016
0.0907389
0.0520742
0.0465113
0.054138
0.0515001
0.0455844
0.0476049
0.0513126
0.0347618
0.0228874
0.0316193
0.0735158
0.156233
0.273769
0.401749
0.498614
0.512158
0.41371
0.267715
0.141677
0.0601455
0.0240551
0.0244792
0.041806
0.047315
0.0445305
0.0473939
0.0554904
0.0436295
0.034665
0.0459734
0.0900134
0.173093
0.287441
0.407383
0.491318
0.49462
0.385783
0.236389
0.11213
0.0349738
0.00298633
0.00678749
0.0301905
0.0428877
0.0434564
0.0466814
0.0591069
0.0541461
0.0496012
0.063287
0.106492
0.182577
0.281243
0.376734
0.432277
0.412449
0.31737
0.193815
0.0872384
0.0193821
-0.00895218
-0.00475829
0.0205011
0.0385583
0.0423899
0.0452834
0.0611558
0.0643992
0.0656825
0.0813363
0.121045
0.185293
0.262437
0.329586
0.359345
0.331946
0.255372
0.15911
0.0733698
0.0153963
-0.0115016
-0.00986128
0.0136013
0.0346148
0.0413513
0.0430262
0.0607485
0.0719546
0.0800358
0.0974791
0.132068
0.182753
0.238792
0.282556
0.296298
0.271013
0.21316
0.140502
0.0722659
0.0216044
-0.00609832
-0.00938412
0.00977774
0.0314196
0.0403637
0.0398012
0.0572515
0.0743474
0.0890249
0.108327
0.137572
0.175481
0.213995
0.241369
0.247195
0.227385
0.185696
0.131901
0.0776928
0.0328643
0.0039381
-0.00465752
0.00890881
0.0292394
0.0394462
0.0359454
0.0510112
0.0703042
0.0893314
0.109957
0.134521
0.161876
0.187055
0.203375
0.205302
0.190783
0.161676
0.122775
0.0807664
0.0425527
0.0145562
0.0025043
0.0106234
0.028188
0.0386343
0.0335029
0.0436357
0.0604672
0.0794395
0.0990489
0.118995
0.138025
0.153484
0.162227
0.161769
0.15119
0.131381
0.104661
0.0745104
0.0453989
0.0223554
0.010434
0.0145207
0.0283727
0.037972
0.0361163
0.0387367
0.0487874
0.0624247
0.0769181
0.0906088
0.102164
0.110229
0.11365
0.111658
0.104172
0.0917003
0.0755996
0.0577034
0.0403267
0.0262063
0.0182118
0.0203181
0.0298594
0.0374964
0.0398055
0.0370733
0.039766
0.045034
0.0511613
0.0568082
0.0610831
0.0634597
0.0636949
0.0617774
0.0579318
0.0525184
0.0460909
0.0394062
0.0332395
0.0285835
0.0260954
0.027796
0.0326633
0.0372532
0.0426893
0.0414339
0.0403199
0.0396814
0.0394542
0.0394024
0.0393256
0.0391218
0.0387616
0.0382656
0.0376795
0.0370593
0.0364601
0.0359372
0.0355365
0.0353021
0.0352352
0.0355281
0.0360096
0.037256
)
;

boundaryField
{
    movingWall
    {
        type            zeroGradient;
    }
    fixedWalls
    {
        type            zeroGradient;
    }
    frontAndBack
    {
        type            empty;
    }
}


// ************************************************************************* //
