/*--------------------------------*- C++ -*----------------------------------*\
  =========                 |
  \\      /  F ield         | OpenFOAM: The Open Source CFD Toolbox
   \\    /   O peration     | Website:  https://openfoam.org
    \\  /    A nd           | Version:  11
     \\/     M anipulation  |
\*---------------------------------------------------------------------------*/
FoamFile
{
    format      ascii;
    class       volScalarField;
    location    "17.75";
    object      C;
}
// * * * * * * * * * * * * * * * * * * * * * * * * * * * * * * * * * * * * * //

dimensions      [0 0 0 0 0 0 0];

internalField   nonuniform List<scalar> 
400
(
0.0232821
0.0318273
0.0423549
0.0473759
0.0491292
0.0475495
0.0459036
0.0443075
0.0429172
0.0417696
0.0408729
0.0402229
0.0398217
0.0397156
0.0398375
0.0401488
0.0405643
0.0410297
0.0415217
0.0420799
0.0348664
0.0390212
0.0462146
0.0490285
0.0479629
0.0445004
0.0408461
0.0374907
0.0349381
0.0334261
0.0330035
0.0335791
0.0349586
0.0368087
0.0387887
0.0405316
0.0417247
0.0421699
0.0418877
0.041189
0.0386667
0.0441758
0.0497242
0.0503214
0.0467589
0.0414158
0.0361883
0.032112
0.0299549
0.0299969
0.0321174
0.0358322
0.0403913
0.0448652
0.048343
0.0501705
0.0501456
0.0485768
0.0462848
0.0444168
0.0407792
0.0480855
0.0533266
0.0528143
0.0482243
0.0423941
0.0373453
0.0346142
0.0352579
0.0395405
0.046802
0.0555982
0.0639718
0.0699737
0.0722509
0.0703524
0.0649347
0.0576593
0.0507681
0.0464911
0.042151
0.0515798
0.0579555
0.0582464
0.0549998
0.0514252
0.0499448
0.0525954
0.0604795
0.0730986
0.0882137
0.102554
0.112711
0.116347
0.11253
0.10186
0.0864924
0.0698706
0.0559168
0.0480694
0.0430111
0.0548888
0.0639761
0.0674331
0.068595
0.0711669
0.0781238
0.0917167
0.112149
0.136604
0.159858
0.176401
0.1824
0.177123
0.161801
0.138756
0.111233
0.083661
0.0613654
0.0493747
0.0434589
0.0579034
0.0710415
0.0798937
0.0884518
0.101032
0.121161
0.150826
0.188113
0.226071
0.254952
0.266943
0.259872
0.238084
0.207288
0.171631
0.133798
0.0968911
0.066585
0.0504489
0.0434956
0.0602558
0.0782505
0.0939471
0.111702
0.136311
0.171698
0.219458
0.275198
0.326762
0.35806
0.358074
0.328811
0.284747
0.237437
0.192199
0.149236
0.10741
0.0710811
0.0513164
0.043184
0.0615874
0.0844066
0.10717
0.133965
0.169428
0.217398
0.279413
0.350042
0.413217
0.445121
0.428211
0.37208
0.305958
0.245661
0.196314
0.154795
0.113836
0.0744569
0.0519663
0.0425619
0.0615139
0.0883648
0.117142
0.150842
0.192951
0.246072
0.311408
0.384902
0.452202
0.483938
0.449517
0.373357
0.294843
0.230482
0.184098
0.150139
0.115604
0.0765559
0.0524175
0.0417857
0.0597815
0.0889373
0.121741
0.159052
0.202301
0.251783
0.307235
0.365536
0.415903
0.439185
0.399558
0.324815
0.251426
0.195056
0.158891
0.136913
0.112869
0.0772712
0.0526686
0.0409732
0.0565235
0.0855387
0.119781
0.157193
0.196723
0.236198
0.273513
0.306096
0.327714
0.325842
0.291415
0.238106
0.185439
0.14678
0.12601
0.118053
0.10632
0.0766746
0.0527416
0.040262
0.0521514
0.0782709
0.111061
0.145626
0.178542
0.205913
0.224574
0.232834
0.229337
0.211189
0.180639
0.145409
0.114782
0.0959557
0.0912507
0.0970517
0.0971608
0.0747928
0.0526303
0.0398649
0.0474236
0.0681825
0.0966168
0.126124
0.151577
0.168401
0.173488
0.166271
0.148615
0.123645
0.0964352
0.0727507
0.0572554
0.0530338
0.0605844
0.0768458
0.0866465
0.071619
0.0523329
0.0400916
0.0433198
0.0571205
0.0786624
0.101461
0.119788
0.129229
0.127356
0.11444
0.0933876
0.0688607
0.0458641
0.0289637
0.0212889
0.0244719
0.0382523
0.0600034
0.0760201
0.0675081
0.0518337
0.0413371
0.0408608
0.0475057
0.0606919
0.0756048
0.0872592
0.0919989
0.088132
0.0761974
0.0586815
0.0393585
0.0221006
0.0101963
0.00614433
0.0114261
0.026071
0.0482075
0.0663075
0.0628629
0.0511464
0.0440543
0.0408793
0.041534
0.0466447
0.0535479
0.058954
0.0604032
0.0568211
0.0485981
0.0372689
0.0250726
0.0144596
0.00748595
0.00593722
0.0111273
0.023515
0.042041
0.0582223
0.0580163
0.0502945
0.0462664
0.0425528
0.0399863
0.0394617
0.0401188
0.0405257
0.0395411
0.0366668
0.0320886
0.0265057
0.0209156
0.0164523
0.0141747
0.015077
0.0197923
0.0286813
0.0411188
0.0521871
0.0533485
0.0493334
0.0463868
0.0449303
0.0424984
0.040291
0.0384426
0.0367883
0.0351396
0.0334255
0.0317199
0.0302138
0.029153
0.0288237
0.0294877
0.0313556
0.0344346
0.0387456
0.0439532
0.0483393
0.04927
0.0483355
0.0436057
0.0435497
0.0434533
0.0431937
0.0428078
0.0424014
0.0420596
0.0418271
0.0417305
0.0417772
0.0419666
0.0422913
0.0427364
0.0432889
0.04392
0.0446092
0.0453292
0.0460033
0.0465087
0.0475139
)
;

boundaryField
{
    movingWall
    {
        type            zeroGradient;
    }
    fixedWalls
    {
        type            zeroGradient;
    }
    frontAndBack
    {
        type            empty;
    }
}


// ************************************************************************* //
