/*--------------------------------*- C++ -*----------------------------------*\
  =========                 |
  \\      /  F ield         | OpenFOAM: The Open Source CFD Toolbox
   \\    /   O peration     | Website:  https://openfoam.org
    \\  /    A nd           | Version:  11
     \\/     M anipulation  |
\*---------------------------------------------------------------------------*/
FoamFile
{
    format      ascii;
    class       volScalarField;
    location    "10.5";
    object      C;
}
// * * * * * * * * * * * * * * * * * * * * * * * * * * * * * * * * * * * * * //

dimensions      [0 0 0 0 0 0 0];

internalField   nonuniform List<scalar> 
400
(
-0.000458707
-0.00164205
0.116493
0.118442
-0.0144803
-0.00337298
0.00244776
-0.000776537
0.00011203
2.9007e-05
-2.57941e-05
7.46064e-06
-3.50968e-06
-1.04964e-05
-5.70104e-06
1.44019e-06
-1.65222e-05
-0.000120287
-0.000339467
-0.000437309
-0.00118341
0.0782614
0.131223
0.0486142
-0.0154986
0.00069096
0.00117242
-0.000532026
0.00013056
-3.54429e-05
-4.92733e-05
-2.43868e-05
-1.55969e-05
3.0269e-05
0.000124746
0.000277123
0.000493633
0.000667528
0.000351859
-0.000937451
0.0291905
0.131866
0.105945
0.00685546
-0.0110902
0.00228479
-2.56211e-05
-0.000306976
0.000278087
5.4231e-05
-3.83053e-07
6.19941e-05
0.000182403
0.000310274
0.000378028
0.000472994
0.00123707
0.00412753
0.0097803
0.0138571
0.056422
0.156055
0.0787433
-0.0102552
-0.0055217
0.00382528
-0.00076527
-0.00124412
-0.000423878
-5.17808e-05
0.000296637
0.000681567
0.00104805
0.00102604
0.000273336
-0.00103995
-0.000948544
0.00695342
0.0310812
0.0626304
0.073486
0.171877
0.0631502
-0.0205483
-0.00455506
0.00751717
0.00368589
0.00129203
4.25083e-05
-0.000391657
0.00016503
0.000893143
0.000888862
-6.7517e-05
-0.00243646
-0.00625476
-0.00855583
0.00410889
0.0567343
0.139295
0.0806761
0.193469
0.0672887
-0.0321236
-0.0208564
-0.00329421
0.00112809
0.0046385
0.00644773
0.00554297
0.00276576
-0.00130333
-0.00636582
-0.00994644
-0.0123961
-0.0165271
-0.0200951
-0.00328186
0.080804
0.218199
0.0783178
0.224183
0.106305
-0.0222886
-0.0384983
-0.0308826
-0.0283184
-0.0217661
-0.0105722
-0.000953639
-0.000834455
-0.0118254
-0.0232803
-0.0287964
-0.0259832
-0.0254637
-0.0276945
-0.00738608
0.106067
0.273629
0.0653444
0.254043
0.187675
0.0500545
0.00674945
-0.00112293
-0.0147583
-0.0335861
-0.0481782
-0.0512392
-0.0449266
-0.036978
-0.0251925
-0.0221674
-0.0110858
-0.00767883
-0.0134775
0.00406606
0.139875
0.29153
0.0442432
0.264062
0.289437
0.191605
0.154775
0.161067
0.16475
0.142859
0.0815477
-0.00174508
-0.0456151
0.000928184
0.0689202
0.0850984
0.089415
0.0757647
0.0467161
0.0444756
0.186963
0.272261
0.0204421
0.237606
0.363507
0.346217
0.348305
0.390975
0.443148
0.486022
0.50821
0.470976
0.345148
0.311986
0.347993
0.335134
0.298279
0.240219
0.16496
0.122665
0.243185
0.22626
0.00253904
0.175248
0.362219
0.429745
0.471935
0.530327
0.596678
0.666616
0.74909
0.880747
1.01945
0.831898
0.700484
0.612957
0.529008
0.433851
0.318551
0.233718
0.297229
0.168403
-0.00591939
0.100038
0.280876
0.393979
0.452592
0.490735
0.517948
0.54117
0.556328
0.636903
0.753253
0.784801
0.732112
0.665996
0.610491
0.546407
0.446988
0.351855
0.333522
0.112088
-0.00626679
0.0387678
0.162691
0.267016
0.315786
0.322125
0.302751
0.27586
0.225904
0.194305
0.189571
0.236082
0.317495
0.393349
0.452208
0.492616
0.484319
0.433971
0.33797
0.065769
-0.00292597
0.00538218
0.0630248
0.125491
0.15176
0.140329
0.105506
0.0699941
0.0274485
-0.0156451
-0.0463092
-0.0478589
-0.00670111
0.0706322
0.175022
0.299415
0.405479
0.439648
0.30286
0.0320649
-0.000230805
-0.00409929
0.00980798
0.0313327
0.0380205
0.0258687
0.00258672
-0.0162889
-0.0277462
-0.0358479
-0.0402923
-0.0450394
-0.0516538
-0.0470452
-0.00689354
0.0950843
0.249507
0.35751
0.231126
0.00945256
0.000391214
-0.00273629
-0.00473529
-0.00415794
-0.00656517
-0.0128221
-0.0203656
-0.0240921
-0.0213161
-0.0144918
-0.00703293
-0.00195016
-0.0060567
-0.0224512
-0.038839
-0.0150212
0.0948453
0.217071
0.139248
-0.00414484
0.000112124
-0.000426718
-0.00311513
-0.00626199
-0.00915599
-0.0108488
-0.0108751
-0.00935093
-0.00635728
-0.00254213
0.00109037
0.00417501
0.00705788
0.00482764
-0.0108777
-0.0299749
0.00152491
0.077128
0.0536189
-0.0106751
-1.33763e-05
0.00019097
-0.00040056
-0.00151514
-0.00237357
-0.00238195
-0.00151832
-0.000386088
0.000449567
0.00077693
0.000649892
0.000466865
0.00147597
0.00447257
0.00460412
-0.00791904
-0.0194899
-0.00467741
0.000936419
-0.0114479
-6.41092e-06
6.79831e-05
0.000166507
0.000218379
0.000289058
0.000411995
0.00057907
0.000713188
0.000732538
0.000608358
0.000326261
-0.000129778
-0.000655738
-0.000777906
0.00130251
0.00460095
-0.00103474
-0.012188
-0.00933906
-0.00794335
1.72851e-07
-1.86506e-06
1.55699e-05
5.798e-05
0.000106641
0.0001321
0.000122597
8.93349e-05
5.14393e-05
2.45021e-05
1.25806e-05
5.71612e-06
-2.73967e-05
-7.45332e-05
-0.0001194
-0.000144236
-0.00014252
0.000130819
0.0031906
-0.00265172
)
;

boundaryField
{
    movingWall
    {
        type            zeroGradient;
    }
    fixedWalls
    {
        type            zeroGradient;
    }
    frontAndBack
    {
        type            empty;
    }
}


// ************************************************************************* //
