/*--------------------------------*- C++ -*----------------------------------*\
  =========                 |
  \\      /  F ield         | OpenFOAM: The Open Source CFD Toolbox
   \\    /   O peration     | Website:  https://openfoam.org
    \\  /    A nd           | Version:  11
     \\/     M anipulation  |
\*---------------------------------------------------------------------------*/
FoamFile
{
    format      ascii;
    class       volScalarField;
    location    "12.125";
    object      C;
}
// * * * * * * * * * * * * * * * * * * * * * * * * * * * * * * * * * * * * * //

dimensions      [0 0 0 0 0 0 0];

internalField   nonuniform List<scalar> 
400
(
0.00528046
0.0209439
0.0299191
-0.000484809
0.00277834
0.0116102
0.024028
0.0360592
0.0461695
0.0538123
0.0589625
0.0618299
0.0626911
0.0617127
0.0595976
0.0567528
0.0536677
0.0504749
0.0470211
0.0429271
0.0279809
0.0265137
0.0120619
0.00429366
0.0220912
0.0479294
0.0765464
0.100797
0.117045
0.12404
0.122515
0.114321
0.101964
0.0884745
0.0756729
0.0650471
0.057452
0.0530934
0.0517817
0.0528874
0.0335492
0.0182092
0.00515421
0.0177636
0.0520996
0.0951286
0.136757
0.167512
0.182886
0.182114
0.167353
0.143048
0.114836
0.0880539
0.0665953
0.0521957
0.0443284
0.0411392
0.0406731
0.0415125
0.0327902
0.0103964
0.00502079
0.0312739
0.0779292
0.1337
0.18626
0.224755
0.241843
0.234233
0.204106
0.1595
0.111903
0.0718698
0.0454054
0.0328407
0.0301726
0.0323324
0.0356443
0.0381073
0.0311232
0.00523635
0.00539588
0.0378456
0.0908687
0.155597
0.219886
0.270477
0.293924
0.281163
0.233578
0.164808
0.095349
0.0429117
0.0151603
0.0082131
0.0129104
0.0216408
0.030051
0.0354017
0.0302141
0.00205568
0.00356745
0.0354506
0.0884894
0.158086
0.234755
0.303268
0.342168
0.332374
0.27041
0.175518
0.081782
0.0180038
-0.00844365
-0.00972719
-0.000544152
0.011989
0.0247725
0.0333893
0.0302587
0.000289236
-0.000176534
0.0259097
0.0724766
0.140664
0.227019
0.318177
0.385089
0.392141
0.321684
0.196697
0.0737957
0.000648542
-0.0209504
-0.0169075
-0.00738468
0.00460865
0.0199643
0.0317496
0.03126
-0.000172591
-0.00426387
0.0129977
0.0472758
0.105498
0.194172
0.309588
0.419554
0.463532
0.392499
0.227988
0.064751
-0.0162895
-0.0293468
-0.0183921
-0.00938339
-0.000440631
0.0157614
0.0303571
0.0329833
0.000608686
-0.00718401
0.000717908
0.0192035
0.05948
0.141074
0.279694
0.449031
0.556531
0.496804
0.277801
0.0612771
-0.031043
-0.0383282
-0.0209049
-0.0104557
-0.00408349
0.0121614
0.0291659
0.0354805
0.00239709
-0.00823488
-0.00785051
-0.00477977
0.013821
0.0786909
0.229037
0.458992
0.657575
0.6361
0.347015
0.0845497
-0.0274136
-0.0422528
-0.0255961
-0.0130749
-0.00727188
0.00902839
0.0281344
0.0384431
0.00542046
-0.00761308
-0.0117706
-0.0198675
-0.0201729
0.0237894
0.165208
0.414006
0.657604
0.676364
0.412449
0.146276
0.00916314
-0.0311079
-0.0278544
-0.0168452
-0.0103946
0.00631963
0.0272655
0.0419021
0.00971559
-0.00590622
-0.0121398
-0.0251558
-0.0365675
-0.00970218
0.109111
0.33244
0.559412
0.601893
0.4391
0.226372
0.0744035
-0.000220946
-0.0215221
-0.019124
-0.0131537
0.00403081
0.0265672
0.0461408
0.0155288
-0.00338674
-0.0110042
-0.0233282
-0.0363801
-0.0184409
0.0750026
0.25276
0.439173
0.511972
0.440868
0.291569
0.145467
0.0454937
-0.00308051
-0.0163171
-0.0147414
0.00239652
0.0260953
0.0515626
0.0234105
0.000719905
-0.00965767
-0.0190284
-0.0267791
-0.00974984
0.063368
0.19711
0.342988
0.427862
0.415483
0.324669
0.203841
0.0966962
0.0263054
-0.00641885
-0.0138442
0.00190075
0.0259342
0.058633
0.03438
0.00881812
-0.00633724
-0.014653
-0.0159779
0.00384078
0.063158
0.163209
0.275831
0.357838
0.37778
0.33269
0.244701
0.145382
0.0623812
0.0103827
-0.0093706
0.0030568
0.0262294
0.0646514
0.0483779
0.0241004
0.00484
-0.00538027
-0.00403206
0.0167552
0.0655524
0.141203
0.227672
0.299739
0.334476
0.321329
0.265138
0.18263
0.0973635
0.0313047
-0.000800843
0.00650118
0.0271227
0.0544105
0.0575994
0.0452581
0.0293148
0.0191818
0.0207006
0.0390365
0.0773758
0.133331
0.197378
0.254854
0.290479
0.293479
0.260522
0.197613
0.120671
0.0512709
0.0116861
0.0129292
0.028779
0.0295378
0.0551834
0.0627683
0.0612626
0.0601341
0.0659477
0.0825305
0.110816
0.148303
0.189141
0.225145
0.247416
0.248747
0.225518
0.180277
0.12156
0.0638973
0.0268661
0.0226154
0.0313085
0.0187857
0.043605
0.0611316
0.0733979
0.083829
0.0952982
0.109248
0.125546
0.142664
0.158069
0.168795
0.171926
0.165452
0.1488
0.123972
0.0937102
0.0633361
0.0413734
0.0346913
0.0346734
0.0353274
0.0414523
0.0475984
0.0535012
0.059058
0.0641051
0.0684914
0.0720753
0.0746551
0.0760607
0.0761719
0.0749513
0.0724806
0.0688849
0.0644581
0.0595338
0.0544553
0.0495971
0.0451388
0.0380866
)
;

boundaryField
{
    movingWall
    {
        type            zeroGradient;
    }
    fixedWalls
    {
        type            zeroGradient;
    }
    frontAndBack
    {
        type            empty;
    }
}


// ************************************************************************* //
