/*--------------------------------*- C++ -*----------------------------------*\
  =========                 |
  \\      /  F ield         | OpenFOAM: The Open Source CFD Toolbox
   \\    /   O peration     | Website:  https://openfoam.org
    \\  /    A nd           | Version:  11
     \\/     M anipulation  |
\*---------------------------------------------------------------------------*/
FoamFile
{
    format      ascii;
    class       volScalarField;
    location    "13";
    object      C;
}
// * * * * * * * * * * * * * * * * * * * * * * * * * * * * * * * * * * * * * //

dimensions      [0 0 0 0 0 0 0];

internalField   nonuniform List<scalar> 
400
(
0.00865768
0.0184072
0.043762
0.0417269
0.0336239
0.0325947
0.0332121
0.0356661
0.0393428
0.0438269
0.0487175
0.0536298
0.0581425
0.0616744
0.0640175
0.0648581
0.0641932
0.06197
0.0583242
0.0534885
0.0222003
0.0353275
0.0423374
0.0346774
0.0297506
0.0315462
0.037755
0.0483877
0.0620256
0.076973
0.091359
0.103361
0.11137
0.114543
0.112296
0.104828
0.09374
0.0817038
0.072319
0.0683501
0.0308421
0.0409672
0.036268
0.0265513
0.0238396
0.0285099
0.0404323
0.0592911
0.0832794
0.10983
0.135559
0.156617
0.169305
0.171036
0.160814
0.140084
0.113021
0.0859544
0.0659535
0.0576426
0.0353934
0.0405589
0.0289348
0.0180656
0.0153252
0.0206795
0.0357595
0.0612905
0.0962459
0.137197
0.178036
0.21107
0.229235
0.228406
0.208416
0.173609
0.131584
0.0914811
0.0624833
0.050493
0.0376247
0.0383289
0.0222249
0.00977987
0.005171
0.00908832
0.0250253
0.0557783
0.101686
0.158241
0.215346
0.259611
0.279424
0.270023
0.235723
0.187396
0.136375
0.0909662
0.0586551
0.0464426
0.0387564
0.0362602
0.0170498
0.00279256
-0.00448595
-0.00349365
0.0110082
0.0447875
0.101026
0.174951
0.250799
0.305611
0.320485
0.292115
0.235867
0.174294
0.122097
0.0814961
0.0527002
0.0431859
0.0394416
0.0350794
0.0137819
-0.00201477
-0.0120115
-0.0152215
-0.00508484
0.0284982
0.094618
0.190287
0.291402
0.358496
0.360815
0.301017
0.214664
0.13957
0.0920595
0.0644902
0.0451199
0.0404016
0.0399567
0.0350438
0.0124134
-0.00446911
-0.0168898
-0.02522
-0.0220779
0.00837611
0.0847731
0.208903
0.345289
0.427733
0.406921
0.303519
0.182613
0.0950907
0.0545211
0.0431414
0.0366532
0.0378826
0.0404252
0.0361381
0.0127489
-0.00493667
-0.0192151
-0.0321121
-0.0357293
-0.00852245
0.0793286
0.238216
0.420008
0.517796
0.457122
0.301974
0.148782
0.0526531
0.0186658
0.0215437
0.0281953
0.0355617
0.0407732
0.0384883
0.0145575
-0.00385184
-0.0190124
-0.0337775
-0.0393331
-0.00998483
0.0934287
0.290681
0.515815
0.609217
0.49585
0.294606
0.119563
0.0202493
-0.00906445
0.00290879
0.0204802
0.0334205
0.0410013
0.0418015
0.018372
-0.00108689
-0.0161993
-0.029132
-0.0295454
0.00910369
0.124167
0.332175
0.582194
0.640184
0.495973
0.278874
0.0999415
0.00215427
-0.0256416
-0.010862
0.0139564
0.0314479
0.0410002
0.0457375
0.0248058
0.00427263
-0.0103203
-0.0186419
-0.00929499
0.0412738
0.158549
0.342417
0.523331
0.563585
0.444738
0.255512
0.0928835
-0.000396834
-0.0308181
-0.0191111
0.0088175
0.0296337
0.0404773
0.0498037
0.034209
0.0138491
-3.81563e-05
-0.00308444
0.0158693
0.0741451
0.182556
0.326445
0.444349
0.465092
0.377761
0.233558
0.0982493
0.010287
-0.0263659
-0.0220634
0.00515998
0.0279853
0.0388721
0.0530888
0.045986
0.0289946
0.0166854
0.0177406
0.0422579
0.100523
0.19266
0.298843
0.377236
0.38985
0.329798
0.223958
0.113131
0.0291904
-0.0156548
-0.020803
0.00316575
0.0265212
0.035035
0.0538772
0.0577951
0.0489877
0.0410305
0.045148
0.0702869
0.121445
0.193959
0.270313
0.3246
0.335202
0.296033
0.219203
0.128435
0.048827
-0.00262259
-0.0166802
0.00273311
0.0252898
0.0270562
0.0499444
0.0653508
0.0689678
0.0697549
0.0780426
0.101228
0.141532
0.193848
0.245851
0.282059
0.289616
0.263093
0.206658
0.13331
0.0615029
0.00875377
-0.0109742
0.00372617
0.0243389
0.0160618
0.0394673
0.0630153
0.0792754
0.0914374
0.105856
0.127288
0.15662
0.190236
0.22093
0.240206
0.240984
0.219388
0.176658
0.120075
0.0616984
0.0154979
-0.00452195
0.00622808
0.023737
0.0166106
0.0292153
0.0505229
0.0717425
0.0908252
0.109074
0.127883
0.147063
0.164616
0.177243
0.181456
0.174358
0.154967
0.124314
0.0866429
0.0480832
0.0166753
0.00264163
0.0104372
0.0235355
0.0252484
0.021562
0.0312593
0.0446347
0.0584471
0.0711623
0.0820079
0.0903423
0.0954472
0.0965913
0.0933088
0.0854101
0.0733331
0.0582554
0.0421011
0.0270427
0.0153473
0.0116375
0.0166028
0.0237899
0.0435694
0.0410406
0.0386064
0.037403
0.0373971
0.0379606
0.0385047
0.0386755
0.038295
0.0373354
0.0358629
0.034005
0.0319244
0.0297889
0.0277793
0.0260209
0.0245869
0.0238375
0.0235547
0.0243721
)
;

boundaryField
{
    movingWall
    {
        type            zeroGradient;
    }
    fixedWalls
    {
        type            zeroGradient;
    }
    frontAndBack
    {
        type            empty;
    }
}


// ************************************************************************* //
