/*--------------------------------*- C++ -*----------------------------------*\
  =========                 |
  \\      /  F ield         | OpenFOAM: The Open Source CFD Toolbox
   \\    /   O peration     | Website:  https://openfoam.org
    \\  /    A nd           | Version:  11
     \\/     M anipulation  |
\*---------------------------------------------------------------------------*/
FoamFile
{
    format      ascii;
    class       volScalarField;
    location    "13";
    object      C;
}
// * * * * * * * * * * * * * * * * * * * * * * * * * * * * * * * * * * * * * //

dimensions      [0 0 0 0 0 0 0];

internalField   nonuniform List<scalar> 
400
(
2.60152e-82
1.89736e-77
1.23206e-72
7.01172e-68
3.42593e-63
1.39721e-58
4.56606e-54
1.12098e-49
1.83771e-45
1.50888e-41
1.50888e-41
1.83735e-45
1.12049e-49
4.56276e-54
1.39573e-58
3.421e-63
6.99865e-68
1.22918e-72
1.89196e-77
2.59266e-82
1.89736e-77
1.38604e-72
9.01495e-68
5.13883e-63
2.51493e-58
1.02735e-53
3.36286e-49
8.26942e-45
1.3579e-40
1.11676e-36
1.11676e-36
1.35769e-40
8.26656e-45
3.36091e-49
1.02647e-53
2.51198e-58
5.13094e-63
8.99752e-68
1.38276e-72
1.89196e-77
1.23206e-72
9.01495e-68
5.87294e-63
3.35324e-58
1.64375e-53
6.72569e-49
2.20516e-44
5.43149e-40
8.93356e-36
7.35923e-32
7.35923e-32
8.93254e-36
5.43005e-40
2.20416e-44
6.72113e-49
1.64221e-53
3.3491e-58
5.86374e-63
8.99752e-68
1.22918e-72
7.01172e-68
5.13883e-63
3.35324e-58
1.91771e-53
9.41595e-49
3.85902e-44
1.26734e-39
3.12669e-35
5.15116e-31
4.25039e-27
4.25039e-27
5.15074e-31
3.12608e-35
1.2669e-39
3.85701e-44
9.40911e-49
1.91586e-53
3.3491e-58
5.13094e-63
6.99865e-68
3.42593e-63
2.51493e-58
1.64375e-53
9.41595e-49
4.63081e-44
1.901e-39
6.25333e-35
1.54532e-30
2.55009e-26
2.10764e-22
2.10764e-22
2.54995e-26
1.54511e-30
6.2518e-35
1.90028e-39
4.62831e-44
9.40911e-49
1.64221e-53
2.51198e-58
3.421e-63
1.39721e-58
1.02735e-53
6.72569e-49
3.85902e-44
1.901e-39
7.81665e-35
2.57552e-30
6.37512e-26
1.05376e-21
8.72371e-18
8.72371e-18
1.05373e-21
6.37456e-26
2.5751e-30
7.81461e-35
1.90028e-39
3.85701e-44
6.72113e-49
1.02647e-53
1.39573e-58
4.56606e-54
3.36286e-49
2.20516e-44
1.26734e-39
6.25333e-35
2.57552e-30
8.50012e-26
2.10749e-21
3.4893e-17
2.89346e-13
2.89346e-13
3.48924e-17
2.10739e-21
8.49928e-26
2.5751e-30
6.2518e-35
1.2669e-39
2.20416e-44
3.36091e-49
4.56276e-54
1.12098e-49
8.26942e-45
5.43149e-40
3.12669e-35
1.54532e-30
6.37512e-26
2.10749e-21
5.23389e-17
8.67993e-13
7.20968e-09
7.20968e-09
8.67988e-13
5.23378e-17
2.10739e-21
6.37456e-26
1.54511e-30
3.12608e-35
5.43005e-40
8.26656e-45
1.12049e-49
1.83771e-45
1.3579e-40
8.93356e-36
5.15116e-31
2.55009e-26
1.05376e-21
3.4893e-17
8.67993e-13
1.44188e-08
0.000119964
0.000119964
1.44188e-08
8.67988e-13
3.48924e-17
1.05373e-21
2.54995e-26
5.15074e-31
8.93254e-36
1.35769e-40
1.83735e-45
1.50888e-41
1.11676e-36
7.35923e-32
4.25039e-27
2.10764e-22
8.72371e-18
2.89346e-13
7.20968e-09
0.000119964
0.99976
0.99976
0.000119964
7.20968e-09
2.89346e-13
8.72371e-18
2.10764e-22
4.25039e-27
7.35923e-32
1.11676e-36
1.50888e-41
1.50888e-41
1.11676e-36
7.35923e-32
4.25039e-27
2.10764e-22
8.72371e-18
2.89346e-13
7.20968e-09
0.000119964
0.99976
0.99976
0.000119964
7.20968e-09
2.89346e-13
8.72371e-18
2.10764e-22
4.25039e-27
7.35923e-32
1.11676e-36
1.50888e-41
1.83735e-45
1.35769e-40
8.93254e-36
5.15074e-31
2.54995e-26
1.05373e-21
3.48924e-17
8.67988e-13
1.44188e-08
0.000119964
0.000119964
1.44188e-08
8.67993e-13
3.4893e-17
1.05376e-21
2.55009e-26
5.15116e-31
8.93356e-36
1.3579e-40
1.83771e-45
1.12049e-49
8.26656e-45
5.43005e-40
3.12608e-35
1.54511e-30
6.37456e-26
2.10739e-21
5.23378e-17
8.67988e-13
7.20968e-09
7.20968e-09
8.67993e-13
5.23389e-17
2.10749e-21
6.37512e-26
1.54532e-30
3.12669e-35
5.43149e-40
8.26942e-45
1.12098e-49
4.56276e-54
3.36091e-49
2.20416e-44
1.2669e-39
6.2518e-35
2.5751e-30
8.49928e-26
2.10739e-21
3.48924e-17
2.89346e-13
2.89346e-13
3.4893e-17
2.10749e-21
8.50012e-26
2.57552e-30
6.25333e-35
1.26734e-39
2.20516e-44
3.36286e-49
4.56606e-54
1.39573e-58
1.02647e-53
6.72113e-49
3.85701e-44
1.90028e-39
7.81461e-35
2.5751e-30
6.37456e-26
1.05373e-21
8.72371e-18
8.72371e-18
1.05376e-21
6.37512e-26
2.57552e-30
7.81665e-35
1.901e-39
3.85902e-44
6.72569e-49
1.02735e-53
1.39721e-58
3.421e-63
2.51198e-58
1.64221e-53
9.40911e-49
4.62831e-44
1.90028e-39
6.2518e-35
1.54511e-30
2.54995e-26
2.10764e-22
2.10764e-22
2.55009e-26
1.54532e-30
6.25333e-35
1.901e-39
4.63081e-44
9.41595e-49
1.64375e-53
2.51493e-58
3.42593e-63
6.99865e-68
5.13094e-63
3.3491e-58
1.91586e-53
9.40911e-49
3.85701e-44
1.2669e-39
3.12608e-35
5.15074e-31
4.25039e-27
4.25039e-27
5.15116e-31
3.12669e-35
1.26734e-39
3.85902e-44
9.41595e-49
1.91771e-53
3.35324e-58
5.13883e-63
7.01172e-68
1.22918e-72
8.99752e-68
5.86374e-63
3.3491e-58
1.64221e-53
6.72113e-49
2.20416e-44
5.43005e-40
8.93254e-36
7.35923e-32
7.35923e-32
8.93356e-36
5.43149e-40
2.20516e-44
6.72569e-49
1.64375e-53
3.35324e-58
5.87294e-63
9.01495e-68
1.23206e-72
1.89196e-77
1.38276e-72
8.99752e-68
5.13094e-63
2.51198e-58
1.02647e-53
3.36091e-49
8.26656e-45
1.35769e-40
1.11676e-36
1.11676e-36
1.3579e-40
8.26942e-45
3.36286e-49
1.02735e-53
2.51493e-58
5.13883e-63
9.01495e-68
1.38604e-72
1.89736e-77
2.59266e-82
1.89196e-77
1.22918e-72
6.99865e-68
3.421e-63
1.39573e-58
4.56276e-54
1.12049e-49
1.83735e-45
1.50888e-41
1.50888e-41
1.83771e-45
1.12098e-49
4.56606e-54
1.39721e-58
3.42593e-63
7.01172e-68
1.23206e-72
1.89736e-77
2.60152e-82
)
;

boundaryField
{
    movingWall
    {
        type            zeroGradient;
    }
    fixedWalls
    {
        type            zeroGradient;
    }
    frontAndBack
    {
        type            empty;
    }
}


// ************************************************************************* //
