/*--------------------------------*- C++ -*----------------------------------*\
  =========                 |
  \\      /  F ield         | OpenFOAM: The Open Source CFD Toolbox
   \\    /   O peration     | Website:  https://openfoam.org
    \\  /    A nd           | Version:  11
     \\/     M anipulation  |
\*---------------------------------------------------------------------------*/
FoamFile
{
    format      ascii;
    class       volScalarField;
    location    "20";
    object      C;
}
// * * * * * * * * * * * * * * * * * * * * * * * * * * * * * * * * * * * * * //

dimensions      [0 0 0 0 0 0 0];

internalField   nonuniform List<scalar> 
400
(
0.0283688
0.0350674
0.0459298
0.0467538
0.0442368
0.042611
0.0418247
0.0414965
0.041503
0.0417308
0.0421038
0.0425616
0.0430549
0.0435476
0.0439729
0.0442648
0.044381
0.044277
0.0439554
0.0434727
0.0375363
0.0423777
0.0465623
0.0446258
0.0419834
0.0407652
0.0408956
0.0421318
0.0441914
0.0467039
0.0492995
0.0516335
0.0534039
0.0543957
0.054475
0.0535845
0.0519105
0.0497746
0.0477054
0.046244
0.0414384
0.0455748
0.0455429
0.0422396
0.040228
0.0407701
0.043867
0.0490952
0.0556755
0.0626544
0.0690314
0.0739004
0.0765573
0.0766413
0.0740774
0.0692227
0.0629032
0.0563255
0.0509555
0.0480596
0.0434484
0.0465764
0.0442569
0.0408009
0.0404018
0.0442684
0.052521
0.0643968
0.0782825
0.0920776
0.103533
0.110813
0.112804
0.109374
0.101187
0.0896068
0.0764194
0.0636871
0.053702
0.0485326
0.044566
0.0470042
0.0436897
0.0409764
0.0432526
0.0521938
0.0681292
0.0896996
0.113784
0.136179
0.152642
0.160186
0.157837
0.146807
0.129722
0.109712
0.0894121
0.070834
0.0562857
0.0487925
0.0452522
0.0476104
0.0442939
0.0431074
0.0491684
0.0649964
0.0911629
0.125275
0.161789
0.193301
0.212866
0.216471
0.20436
0.180782
0.151937
0.123373
0.0979547
0.0759499
0.0581905
0.0488574
0.0457202
0.0486478
0.0461929
0.0472635
0.0580769
0.0822363
0.120555
0.169255
0.219598
0.259962
0.279893
0.274466
0.246483
0.205616
0.163094
0.127031
0.0997376
0.0779783
0.0591711
0.0487701
0.0460182
0.0501086
0.0492895
0.0532051
0.0692756
0.102213
0.153101
0.216853
0.281432
0.330318
0.348325
0.329113
0.279815
0.218782
0.162479
0.120684
0.0945405
0.0765446
0.0591253
0.0485521
0.0461556
0.0518354
0.0532916
0.0603674
0.0814543
0.122045
0.183389
0.25963
0.336475
0.393029
0.408065
0.37188
0.298908
0.218968
0.151772
0.106849
0.0839716
0.072116
0.0580972
0.0482127
0.0460653
0.0536028
0.0577612
0.0679607
0.0930005
0.138451
0.205175
0.286798
0.368782
0.429482
0.441981
0.388332
0.29705
0.205466
0.133491
0.0888717
0.0703928
0.0655501
0.0562799
0.0477821
0.045763
0.0549289
0.0620552
0.0750052
0.102348
0.148961
0.214522
0.291738
0.366186
0.417504
0.424008
0.36426
0.270696
0.179927
0.110856
0.0700318
0.0562294
0.0578499
0.0538606
0.0472768
0.0452377
0.0554234
0.0654009
0.0805273
0.108324
0.152493
0.211188
0.276177
0.333718
0.366652
0.357964
0.304049
0.225514
0.147599
0.0877585
0.0531069
0.0435399
0.0499984
0.0510788
0.0467228
0.0444709
0.0548057
0.0669858
0.0835597
0.110151
0.149152
0.197608
0.247204
0.286087
0.301926
0.285584
0.239741
0.177828
0.116305
0.0681153
0.0399164
0.0336308
0.0429623
0.0481438
0.046134
0.043483
0.0530009
0.0661982
0.0833076
0.107494
0.139865
0.177192
0.212285
0.236156
0.241075
0.223483
0.186693
0.139512
0.092449
0.0545429
0.0316393
0.0270241
0.0373557
0.0453135
0.0455276
0.0423695
0.0501585
0.0627935
0.0792068
0.100191
0.125653
0.152737
0.176155
0.189977
0.18983
0.174642
0.146929
0.11206
0.076632
0.0469244
0.0279729
0.0238143
0.0335424
0.0428776
0.0449163
0.041417
0.0468516
0.0573113
0.0714658
0.0885124
0.107424
0.125924
0.140658
0.148257
0.14649
0.135091
0.115679
0.0911698
0.0654946
0.0429029
0.0275703
0.0235687
0.0316563
0.0410377
0.0443276
0.0415567
0.0440517
0.0509812
0.0612684
0.0734938
0.086221
0.097747
0.106178
0.109891
0.107924
0.100259
0.0877953
0.0720741
0.0551654
0.0397357
0.0288172
0.0256335
0.0316996
0.0399599
0.0437947
0.0435659
0.0428762
0.0457289
0.0511898
0.0579484
0.0647577
0.0705098
0.074264
0.0753915
0.0735996
0.069011
0.0620574
0.0535761
0.0446498
0.0365935
0.0310023
0.0295297
0.0336393
0.0397808
0.0433528
0.0453026
0.0432346
0.0431641
0.0443577
0.0461977
0.0480658
0.0494807
0.0501348
0.0498841
0.0487227
0.0467719
0.0442294
0.0413861
0.0386327
0.0363339
0.0350593
0.0351113
0.0373574
0.0405942
0.0430424
0.0454682
0.0447885
0.0441377
0.0436342
0.0432724
0.0429936
0.0427423
0.0424869
0.0422199
0.0419484
0.0416882
0.0414587
0.041277
0.0411638
0.0411309
0.0411933
0.0413425
0.0416753
0.0420674
0.0429086
)
;

boundaryField
{
    movingWall
    {
        type            zeroGradient;
    }
    fixedWalls
    {
        type            zeroGradient;
    }
    frontAndBack
    {
        type            empty;
    }
}


// ************************************************************************* //
