/*--------------------------------*- C++ -*----------------------------------*\
  =========                 |
  \\      /  F ield         | OpenFOAM: The Open Source CFD Toolbox
   \\    /   O peration     | Website:  https://openfoam.org
    \\  /    A nd           | Version:  11
     \\/     M anipulation  |
\*---------------------------------------------------------------------------*/
FoamFile
{
    format      ascii;
    class       volScalarField;
    location    "19.625";
    object      C;
}
// * * * * * * * * * * * * * * * * * * * * * * * * * * * * * * * * * * * * * //

dimensions      [0 0 0 0 0 0 0];

internalField   nonuniform List<scalar> 
400
(
0.0275993
0.0348154
0.043317
0.0439187
0.0472493
0.0482548
0.0484332
0.0481613
0.0476229
0.0469346
0.0461734
0.0453966
0.0446582
0.0440466
0.0435812
0.0433015
0.0432149
0.0433557
0.0437591
0.0444455
0.0374359
0.0404828
0.0445609
0.0474569
0.0507017
0.0517411
0.0515587
0.0503889
0.0485668
0.0464263
0.0442683
0.0423354
0.0408213
0.0398275
0.0393598
0.0393662
0.03972
0.040256
0.040796
0.0412011
0.0405718
0.0434591
0.0479478
0.0532063
0.0573212
0.0591425
0.0591589
0.0575878
0.0549035
0.0516418
0.0482982
0.0453016
0.0429674
0.0414185
0.0405874
0.0403352
0.0404934
0.0408657
0.0412284
0.0413731
0.0418331
0.045878
0.0529544
0.0612019
0.0678623
0.0722951
0.0744771
0.0743879
0.0723981
0.0691728
0.065377
0.0615719
0.0580078
0.0546475
0.0514002
0.0483065
0.0456247
0.0437212
0.0427211
0.042318
0.0424255
0.0482413
0.0588846
0.0712633
0.0825862
0.0922149
0.0995484
0.104149
0.106137
0.10596
0.103919
0.100085
0.0942426
0.0864074
0.0769565
0.0666735
0.0569049
0.0493504
0.0449857
0.0432224
0.0426935
0.0503016
0.0648764
0.0824186
0.100278
0.117685
0.133621
0.147307
0.15829
0.165784
0.16835
0.164584
0.153878
0.137426
0.117206
0.0953212
0.0743861
0.057837
0.0480782
0.0441583
0.0427554
0.0517329
0.0699768
0.0929656
0.118171
0.144823
0.171938
0.198734
0.22381
0.243729
0.253361
0.248606
0.22917
0.1996
0.165186
0.129547
0.0957445
0.0683736
0.0517771
0.0450895
0.0426669
0.0522468
0.0732907
0.100952
0.132683
0.167859
0.206072
0.247215
0.289189
0.325049
0.343852
0.336879
0.304988
0.259486
0.2103
0.162205
0.117243
0.0796055
0.0557886
0.0460029
0.0424964
0.0517625
0.0741804
0.104747
0.140583
0.181069
0.226582
0.278454
0.33526
0.387636
0.417602
0.408369
0.362994
0.303139
0.242642
0.186671
0.135164
0.0901069
0.0597789
0.0468716
0.0423366
0.0502869
0.0724061
0.103546
0.140094
0.181043
0.227072
0.28091
0.343526
0.407206
0.448621
0.438087
0.385325
0.319464
0.255578
0.19866
0.146766
0.0986722
0.0634799
0.0476822
0.0422385
0.0481026
0.0680243
0.0972562
0.131143
0.167773
0.207432
0.253218
0.307724
0.365875
0.410977
0.405426
0.360884
0.303235
0.246834
0.196819
0.150735
0.104465
0.0666347
0.0484134
0.0422633
0.0456382
0.0616819
0.0867814
0.115366
0.144371
0.173299
0.20477
0.241961
0.282541
0.313393
0.317035
0.294615
0.257992
0.218815
0.182606
0.147195
0.107033
0.0690808
0.0490578
0.0424896
0.0433738
0.0544164
0.073723
0.0954996
0.115729
0.133118
0.149532
0.168208
0.189617
0.207631
0.215398
0.210629
0.196425
0.178252
0.159328
0.137589
0.10637
0.0706103
0.0495903
0.0430052
0.0418029
0.0475727
0.0602148
0.0747378
0.0868421
0.0947299
0.0995692
0.104342
0.111324
0.119785
0.127618
0.132892
0.134939
0.134564
0.131899
0.123936
0.102701
0.0709065
0.049987
0.0438849
0.0413249
0.0424835
0.0485562
0.0562126
0.0617661
0.0633741
0.0616468
0.0589841
0.0580903
0.0605871
0.0666284
0.0754734
0.0858321
0.0965008
0.105417
0.108498
0.0966075
0.069907
0.0502212
0.0451401
0.0420575
0.04007
0.0407962
0.0427265
0.0434949
0.0417139
0.0376377
0.0328782
0.0295824
0.0296337
0.0339731
0.0426854
0.0550329
0.0696844
0.0839498
0.0934927
0.088795
0.0676832
0.0502679
0.0463866
0.0437592
0.0405194
0.0380827
0.0362637
0.0341219
0.0310135
0.0270837
0.0232184
0.0206845
0.0207258
0.0242439
0.0314764
0.0422287
0.0556473
0.0695463
0.0804476
0.0798374
0.0642568
0.0501001
0.045667
0.0451036
0.0427395
0.0398241
0.0369041
0.0340305
0.0311978
0.0285996
0.0266475
0.0258915
0.0268615
0.0300007
0.0354316
0.0429956
0.0522156
0.0617837
0.0697561
0.0700149
0.0597033
0.0497156
0.0440925
0.0459977
0.0455606
0.0442905
0.0427401
0.041251
0.0400422
0.0392789
0.0391026
0.0396393
0.040973
0.0431535
0.0461626
0.0497913
0.0537976
0.0574475
0.0602787
0.0593439
0.0541404
0.0491189
0.0417725
0.0425472
0.04336
0.0439827
0.0443931
0.0446754
0.0449209
0.0451893
0.0455119
0.0458967
0.0463379
0.0468194
0.0473219
0.0478142
0.0482697
0.0486458
0.0489478
0.0489455
0.0487128
0.0484488
)
;

boundaryField
{
    movingWall
    {
        type            zeroGradient;
    }
    fixedWalls
    {
        type            zeroGradient;
    }
    frontAndBack
    {
        type            empty;
    }
}


// ************************************************************************* //
