/*--------------------------------*- C++ -*----------------------------------*\
  =========                 |
  \\      /  F ield         | OpenFOAM: The Open Source CFD Toolbox
   \\    /   O peration     | Website:  https://openfoam.org
    \\  /    A nd           | Version:  11
     \\/     M anipulation  |
\*---------------------------------------------------------------------------*/
FoamFile
{
    format      ascii;
    class       volScalarField;
    location    "11";
    object      C;
}
// * * * * * * * * * * * * * * * * * * * * * * * * * * * * * * * * * * * * * //

dimensions      [0 0 0 0 0 0 0];

internalField   nonuniform List<scalar> 
400
(
0.000179165
0.0159632
0.0384727
-0.00639018
0.00299471
0.0106147
0.0274665
0.0503452
0.0760236
0.100604
0.120668
0.13362
0.137907
0.133218
0.121746
0.106177
0.0901474
0.0777246
0.0728238
0.0775071
0.0255281
0.0312499
0.0120635
-0.00213267
0.0136005
0.0368452
0.0748274
0.120448
0.165729
0.202224
0.223515
0.225873
0.208597
0.174396
0.12743
0.076097
0.0314169
0.00334801
-0.00371974
0.00504901
0.0390895
0.0221478
0.000147889
0.00223396
0.0167772
0.0388856
0.071322
0.110904
0.15637
0.204818
0.24963
0.279576
0.281764
0.248272
0.183355
0.103714
0.0333798
-0.00863377
-0.0200582
-0.0167715
0.0415852
0.0124307
-0.0030078
0.00231827
0.00758035
0.014515
0.0270966
0.0529158
0.102177
0.177243
0.265668
0.340313
0.370825
0.340156
0.254806
0.145785
0.0532066
0.00322433
-0.00551051
0.00330433
0.0412037
0.00639117
-0.0032806
0.000191225
-0.00367301
-0.00994978
-0.0113454
0.00767495
0.0638725
0.161593
0.282292
0.384964
0.423825
0.377099
0.264969
0.138438
0.0442875
-2.81996e-06
-0.00575291
0.00138892
0.0410828
0.00317426
-0.00284415
-0.00101111
-0.00902478
-0.0206642
-0.0274855
-0.0101997
0.0538536
0.173436
0.323026
0.440081
0.459499
0.36753
0.220369
0.093513
0.0218629
-0.00294396
-0.00302322
0.000687368
0.0419663
0.00158216
-0.00234904
-0.000562182
-0.00850311
-0.0206225
-0.030469
-0.0171207
0.0513825
0.194759
0.380131
0.509521
0.487701
0.325352
0.143421
0.0336845
-0.00276916
-0.0056816
-0.000835434
0.000313716
0.0442118
0.000990661
-0.00215363
0.000582636
-0.00527057
-0.0152452
-0.0268899
-0.0210596
0.0438768
0.208511
0.440972
0.590842
0.509064
0.262893
0.0619446
-0.0149203
-0.0170967
-0.00566971
0.000442589
0.000117723
0.0478013
0.00117516
-0.00249018
0.00146695
-0.00160309
-0.00778504
-0.0214298
-0.032705
0.00980402
0.190823
0.500205
0.697752
0.524754
0.194913
-0.00352431
-0.040993
-0.0185898
-0.00273895
0.00111848
0.000125322
0.053196
0.00209586
-0.00339565
0.0018512
0.00106599
-0.00100794
-0.0158506
-0.045914
-0.0345512
0.149283
0.543589
0.824912
0.530797
0.140806
-0.0418414
-0.0486407
-0.0137723
0.000771949
0.00136146
0.000187761
0.0600995
0.0052237
-0.00486368
0.00165732
0.00263165
0.00257571
-0.01239
-0.047304
-0.0348088
0.172763
0.713364
0.863763
0.512238
0.120584
-0.0477277
-0.0463018
-0.0102083
0.00254155
0.00132904
0.000241248
0.0685581
0.011845
-0.00602068
0.000689228
0.00393111
0.00303476
-0.0126324
-0.0373417
0.00735669
0.23875
0.624893
0.722254
0.460225
0.138006
-0.022821
-0.0383009
-0.0112095
0.00159732
0.0010881
0.000222016
0.0788217
0.0231064
-0.00512839
-0.0017144
0.00405763
0.00185208
-0.0139384
-0.0220464
0.0535007
0.278186
0.543263
0.607053
0.428592
0.180544
0.0208963
-0.025068
-0.0144798
-0.00154584
0.000629894
7.34376e-05
0.0915869
0.0401896
0.000610785
-0.00588806
-0.00130768
-0.00392183
-0.016652
-0.00916241
0.0800391
0.274831
0.476663
0.542548
0.432114
0.234696
0.0690972
-0.00844788
-0.016999
-0.00526165
-0.000138153
-0.000260158
0.105347
0.0648046
0.0171754
-0.00624309
-0.0123574
-0.0181956
-0.025228
-0.00475735
0.0852272
0.247179
0.411085
0.483054
0.42145
0.267858
0.108559
0.0108636
-0.0157296
-0.00802414
-0.00122827
-0.000836737
0.0992181
0.089961
0.0508225
0.0142343
-0.0086987
-0.0226389
-0.024639
0.00612746
0.0919651
0.225337
0.357899
0.426359
0.394441
0.277593
0.134843
0.0302375
-0.0102718
-0.00911378
-0.00263817
-0.00169519
0.0457213
0.0914623
0.091036
0.0666543
0.0413265
0.0258915
0.0299019
0.066049
0.140673
0.240879
0.333105
0.377573
0.349671
0.256884
0.138283
0.0426265
-0.00290814
-0.00857896
-0.00427873
-0.00281562
-0.00595688
0.0667159
0.107763
0.120165
0.120354
0.122581
0.137263
0.170099
0.218707
0.270803
0.307236
0.309523
0.269626
0.195747
0.110869
0.0410708
0.00280893
-0.00692381
-0.00583828
-0.00408332
-0.0114217
0.0329022
0.0772229
0.109972
0.133044
0.151145
0.168009
0.184464
0.198017
0.203976
0.197678
0.176523
0.14199
0.0997266
0.0582859
0.0246979
0.00373989
-0.00499082
-0.00674167
-0.00525737
-0.00379781
0.00021354
0.00792268
0.0181541
0.0283483
0.0368077
0.042835
0.0462132
0.0467643
0.0445311
0.0398197
0.0332293
0.0255753
0.0176611
0.0102683
0.00395219
-0.000955468
-0.00438878
-0.00664562
-0.00596606
)
;

boundaryField
{
    movingWall
    {
        type            zeroGradient;
    }
    fixedWalls
    {
        type            zeroGradient;
    }
    frontAndBack
    {
        type            empty;
    }
}


// ************************************************************************* //
