/*--------------------------------*- C++ -*----------------------------------*\
  =========                 |
  \\      /  F ield         | OpenFOAM: The Open Source CFD Toolbox
   \\    /   O peration     | Website:  https://openfoam.org
    \\  /    A nd           | Version:  11
     \\/     M anipulation  |
\*---------------------------------------------------------------------------*/
FoamFile
{
    format      ascii;
    class       volScalarField;
    location    "12";
    object      C;
}
// * * * * * * * * * * * * * * * * * * * * * * * * * * * * * * * * * * * * * //

dimensions      [0 0 0 0 0 0 0];

internalField   nonuniform List<scalar> 
400
(
1.99393e-85
2.15171e-80
2.06895e-75
1.7449e-70
1.26443e-65
7.65394e-61
3.71552e-56
1.35604e-51
3.30746e-47
4.04352e-43
4.04352e-43
3.30604e-47
1.35473e-51
3.70957e-56
7.63605e-61
1.26042e-65
1.73775e-70
2.05835e-75
2.13827e-80
1.97907e-85
2.15171e-80
2.32755e-75
2.24343e-70
1.89662e-65
1.3777e-60
8.35983e-56
4.06807e-51
1.48833e-46
3.639e-42
4.45974e-38
4.45974e-38
3.63777e-42
1.48719e-46
4.06283e-51
8.34397e-56
1.37412e-60
1.89021e-65
2.23389e-70
2.31543e-75
2.13827e-80
2.06895e-75
2.24343e-70
2.16757e-65
1.83693e-60
1.33757e-55
8.13611e-51
3.96885e-46
1.45558e-41
3.56765e-37
4.38304e-33
4.38304e-33
3.56674e-37
1.45472e-41
3.96486e-46
8.12388e-51
1.33479e-55
1.83192e-60
2.16009e-65
2.23389e-70
2.05835e-75
1.7449e-70
1.89662e-65
1.83693e-60
1.5605e-55
1.13905e-50
6.94547e-46
3.39634e-41
1.24866e-36
3.06801e-32
3.77849e-28
3.77849e-28
3.06745e-32
1.24812e-36
3.39376e-41
6.93748e-46
1.13722e-50
1.55717e-55
1.83192e-60
1.89021e-65
1.73775e-70
1.26443e-65
1.3777e-60
1.33757e-55
1.13905e-50
8.33456e-46
5.09449e-41
2.49731e-36
9.20392e-32
2.26701e-27
2.79889e-23
2.79889e-23
2.26673e-27
9.20112e-32
2.49595e-36
5.0902e-41
8.32457e-46
1.13722e-50
1.33479e-55
1.37412e-60
1.26042e-65
7.65394e-61
8.35983e-56
8.13611e-51
6.94547e-46
5.09449e-41
3.12164e-36
1.53398e-31
5.66746e-27
1.39939e-22
1.73199e-18
1.73199e-18
1.39929e-22
5.66635e-27
1.53342e-31
3.11982e-36
5.0902e-41
6.93748e-46
8.12388e-51
8.34397e-56
7.63605e-61
3.71552e-56
4.06807e-51
3.96885e-46
3.39634e-41
2.49731e-36
1.53398e-31
7.55659e-27
2.79876e-22
6.92772e-18
8.59553e-14
8.59553e-14
6.92746e-18
2.79845e-22
7.55493e-27
1.53342e-31
2.49595e-36
3.39376e-41
3.96486e-46
4.06283e-51
3.70957e-56
1.35604e-51
1.48833e-46
1.45558e-41
1.24866e-36
9.20392e-32
5.66746e-27
2.79876e-22
1.03915e-17
2.57857e-13
3.20731e-09
3.20731e-09
2.57854e-13
1.0391e-17
2.79845e-22
5.66635e-27
9.20112e-32
1.24812e-36
1.45472e-41
1.48719e-46
1.35473e-51
3.30746e-47
3.639e-42
3.56765e-37
3.06801e-32
2.26701e-27
1.39939e-22
6.92772e-18
2.57857e-13
6.41445e-09
7.9984e-05
7.9984e-05
6.41445e-09
2.57854e-13
6.92746e-18
1.39929e-22
2.26673e-27
3.06745e-32
3.56674e-37
3.63777e-42
3.30604e-47
4.04352e-43
4.45974e-38
4.38304e-33
3.77849e-28
2.79889e-23
1.73199e-18
8.59553e-14
3.20731e-09
7.9984e-05
0.99984
0.99984
7.9984e-05
3.20731e-09
8.59553e-14
1.73199e-18
2.79889e-23
3.77849e-28
4.38304e-33
4.45974e-38
4.04352e-43
4.04352e-43
4.45974e-38
4.38304e-33
3.77849e-28
2.79889e-23
1.73199e-18
8.59553e-14
3.20731e-09
7.9984e-05
0.99984
0.99984
7.9984e-05
3.20731e-09
8.59553e-14
1.73199e-18
2.79889e-23
3.77849e-28
4.38304e-33
4.45974e-38
4.04352e-43
3.30604e-47
3.63777e-42
3.56674e-37
3.06745e-32
2.26673e-27
1.39929e-22
6.92746e-18
2.57854e-13
6.41445e-09
7.9984e-05
7.9984e-05
6.41445e-09
2.57857e-13
6.92772e-18
1.39939e-22
2.26701e-27
3.06801e-32
3.56765e-37
3.639e-42
3.30746e-47
1.35473e-51
1.48719e-46
1.45472e-41
1.24812e-36
9.20112e-32
5.66635e-27
2.79845e-22
1.0391e-17
2.57854e-13
3.20731e-09
3.20731e-09
2.57857e-13
1.03915e-17
2.79876e-22
5.66746e-27
9.20392e-32
1.24866e-36
1.45558e-41
1.48833e-46
1.35604e-51
3.70957e-56
4.06283e-51
3.96486e-46
3.39376e-41
2.49595e-36
1.53342e-31
7.55493e-27
2.79845e-22
6.92746e-18
8.59553e-14
8.59553e-14
6.92772e-18
2.79876e-22
7.55659e-27
1.53398e-31
2.49731e-36
3.39634e-41
3.96885e-46
4.06807e-51
3.71552e-56
7.63605e-61
8.34397e-56
8.12388e-51
6.93748e-46
5.0902e-41
3.11982e-36
1.53342e-31
5.66635e-27
1.39929e-22
1.73199e-18
1.73199e-18
1.39939e-22
5.66746e-27
1.53398e-31
3.12164e-36
5.09449e-41
6.94547e-46
8.13611e-51
8.35983e-56
7.65394e-61
1.26042e-65
1.37412e-60
1.33479e-55
1.13722e-50
8.32457e-46
5.0902e-41
2.49595e-36
9.20112e-32
2.26673e-27
2.79889e-23
2.79889e-23
2.26701e-27
9.20392e-32
2.49731e-36
5.09449e-41
8.33456e-46
1.13905e-50
1.33757e-55
1.3777e-60
1.26443e-65
1.73775e-70
1.89021e-65
1.83192e-60
1.55717e-55
1.13722e-50
6.93748e-46
3.39376e-41
1.24812e-36
3.06745e-32
3.77849e-28
3.77849e-28
3.06801e-32
1.24866e-36
3.39634e-41
6.94547e-46
1.13905e-50
1.5605e-55
1.83693e-60
1.89662e-65
1.7449e-70
2.05835e-75
2.23389e-70
2.16009e-65
1.83192e-60
1.33479e-55
8.12388e-51
3.96486e-46
1.45472e-41
3.56674e-37
4.38304e-33
4.38304e-33
3.56765e-37
1.45558e-41
3.96885e-46
8.13611e-51
1.33757e-55
1.83693e-60
2.16757e-65
2.24343e-70
2.06895e-75
2.13827e-80
2.31543e-75
2.23389e-70
1.89021e-65
1.37412e-60
8.34397e-56
4.06283e-51
1.48719e-46
3.63777e-42
4.45974e-38
4.45974e-38
3.639e-42
1.48833e-46
4.06807e-51
8.35983e-56
1.3777e-60
1.89662e-65
2.24343e-70
2.32755e-75
2.15171e-80
1.97907e-85
2.13827e-80
2.05835e-75
1.73775e-70
1.26042e-65
7.63605e-61
3.70957e-56
1.35473e-51
3.30604e-47
4.04352e-43
4.04352e-43
3.30746e-47
1.35604e-51
3.71552e-56
7.65394e-61
1.26443e-65
1.7449e-70
2.06895e-75
2.15171e-80
1.99393e-85
)
;

boundaryField
{
    movingWall
    {
        type            zeroGradient;
    }
    fixedWalls
    {
        type            zeroGradient;
    }
    frontAndBack
    {
        type            empty;
    }
}


// ************************************************************************* //
