/*--------------------------------*- C++ -*----------------------------------*\
  =========                 |
  \\      /  F ield         | OpenFOAM: The Open Source CFD Toolbox
   \\    /   O peration     | Website:  https://openfoam.org
    \\  /    A nd           | Version:  11
     \\/     M anipulation  |
\*---------------------------------------------------------------------------*/
FoamFile
{
    format      ascii;
    class       volScalarField;
    location    "12";
    object      C;
}
// * * * * * * * * * * * * * * * * * * * * * * * * * * * * * * * * * * * * * //

dimensions      [0 0 0 0 0 0 0];

internalField   nonuniform List<scalar> 
400
(
0.00463202
0.0201611
0.0414236
0.0052695
0.00212331
0.00121861
0.00359458
0.00927645
0.0168739
0.0254344
0.0340537
0.042004
0.0486081
0.0530103
0.0551963
0.0550173
0.0528309
0.0487364
0.0427917
0.0349338
0.0276248
0.0342602
0.0197846
0.000933043
0.00284944
0.0104424
0.0267214
0.049301
0.0742984
0.0977639
0.116335
0.127703
0.130845
0.126728
0.116592
0.102572
0.0876417
0.0746251
0.0658967
0.0623768
0.0377378
0.0278468
0.0058566
-0.0010403
0.00665181
0.0252621
0.0563892
0.0950199
0.134825
0.169313
0.19283
0.20177
0.195421
0.176218
0.14874
0.118778
0.091567
0.0706188
0.0576761
0.0528381
0.039663
0.0192008
-0.00124805
-0.00218603
0.00933366
0.0357393
0.0779198
0.130731
0.186031
0.233088
0.261215
0.263833
0.241505
0.202015
0.156792
0.116274
0.0857669
0.0652894
0.0529464
0.0477249
0.039315
0.0131172
-0.0047626
-0.00391207
0.00820555
0.037867
0.0878168
0.154715
0.227926
0.289273
0.31946
0.307897
0.259489
0.192726
0.130262
0.0867921
0.0637393
0.0533092
0.0475235
0.044566
0.0389936
0.00981274
-0.00634173
-0.00624071
0.00299495
0.0308685
0.0846554
0.165309
0.260159
0.340419
0.372883
0.340745
0.25764
0.160004
0.0836772
0.043377
0.0330669
0.0370277
0.0409883
0.0417012
0.0392609
0.00852528
-0.00666592
-0.00863653
-0.00555387
0.0148475
0.0670579
0.160557
0.283018
0.39091
0.428243
0.368814
0.244058
0.119683
0.0388315
0.0060379
0.00590606
0.0210614
0.0343569
0.0392806
0.0403195
0.00859232
-0.0062548
-0.0106531
-0.0158732
-0.00741359
0.0391211
0.147109
0.307673
0.455437
0.49697
0.39419
0.216439
0.0762265
0.00568824
-0.0145102
-0.0100062
0.00873176
0.0282202
0.0371741
0.0421182
0.00949368
-0.00571609
-0.0120752
-0.0252353
-0.0287131
0.0138135
0.143586
0.356587
0.55573
0.591578
0.414509
0.172947
0.0296135
-0.0180727
-0.0208999
-0.0145396
0.0011764
0.0229784
0.0353597
0.0448723
0.0110586
-0.00568331
-0.0125728
-0.0301114
-0.04017
0.00301143
0.15383
0.41362
0.663658
0.690583
0.411587
0.124489
-0.0111596
-0.0354678
-0.0216536
-0.0127928
-0.00251903
0.0186843
0.0337928
0.0484154
0.0141353
-0.00606321
-0.0125248
-0.028493
-0.0362561
0.0130462
0.172186
0.434003
0.66565
0.654617
0.367999
0.0936138
-0.0295131
-0.0441192
-0.0225466
-0.0103452
-0.00408825
0.0152396
0.03244
0.0527608
0.0197419
-0.00548003
-0.0122666
-0.0210403
-0.0175788
0.0418648
0.195313
0.419348
0.587611
0.539888
0.314381
0.0961121
-0.0177093
-0.0408431
-0.0241602
-0.0103013
-0.00511062
0.0124519
0.0312591
0.0577898
0.0289824
-0.00101937
-0.0104677
-0.0100409
0.00963902
0.0795848
0.217881
0.3905
0.500086
0.458679
0.298867
0.124883
0.0121891
-0.0282421
-0.0243084
-0.0125292
-0.00663284
0.0102335
0.0302329
0.0626553
0.0422392
0.0111173
-0.00290628
0.00354292
0.0372754
0.113928
0.233807
0.361175
0.431393
0.400614
0.286631
0.148906
0.0421233
-0.0118291
-0.0220327
-0.0151821
-0.00866277
0.00864287
0.0293571
0.064325
0.0575675
0.0331763
0.0167483
0.0238866
0.0627895
0.137789
0.238214
0.332402
0.379804
0.357334
0.274219
0.165117
0.0682811
0.00716874
-0.0157142
-0.0163399
-0.0104919
0.00767948
0.0286662
0.0553481
0.0682746
0.0611958
0.0510422
0.0581216
0.0932888
0.156619
0.234813
0.303358
0.336798
0.321535
0.261677
0.176808
0.0922938
0.0287508
-0.00487361
-0.0146396
-0.0111197
0.00757154
0.0281869
0.0312895
0.0639708
0.0812479
0.0884574
0.101722
0.131469
0.177877
0.231112
0.27539
0.295625
0.283498
0.24045
0.176349
0.106535
0.0466931
0.0075578
-0.00983545
-0.00925585
0.00892009
0.0279809
0.0175676
0.0497307
0.0805476
0.104903
0.128046
0.154892
0.185408
0.214557
0.234842
0.239431
0.224826
0.191908
0.14617
0.0957574
0.0498096
0.0159234
-0.00241135
-0.00305726
0.0126405
0.0281268
0.023463
0.0324423
0.0543564
0.076982
0.0979007
0.116271
0.131048
0.140638
0.14336
0.138118
0.124992
0.105234
0.0813229
0.0566674
0.0345901
0.0181593
0.0087621
0.0100949
0.019857
0.0287376
0.0524598
0.0520715
0.0520256
0.0533249
0.0555181
0.0575767
0.0587384
0.0586761
0.0573355
0.0548779
0.0515749
0.0477535
0.0437497
0.0398747
0.0364062
0.0335542
0.0313487
0.030156
0.0296167
0.0297129
)
;

boundaryField
{
    movingWall
    {
        type            zeroGradient;
    }
    fixedWalls
    {
        type            zeroGradient;
    }
    frontAndBack
    {
        type            empty;
    }
}


// ************************************************************************* //
