/*--------------------------------*- C++ -*----------------------------------*\
  =========                 |
  \\      /  F ield         | OpenFOAM: The Open Source CFD Toolbox
   \\    /   O peration     | Website:  https://openfoam.org
    \\  /    A nd           | Version:  11
     \\/     M anipulation  |
\*---------------------------------------------------------------------------*/
FoamFile
{
    format      ascii;
    class       volScalarField;
    location    "18.25";
    object      C;
}
// * * * * * * * * * * * * * * * * * * * * * * * * * * * * * * * * * * * * * //

dimensions      [0 0 0 0 0 0 0];

internalField   nonuniform List<scalar> 
400
(
0.0244856
0.0327334
0.045319
0.0404459
0.0397554
0.0415119
0.0432595
0.0449121
0.046331
0.0474813
0.0483598
0.0489724
0.04932
0.0493774
0.0491909
0.048777
0.0482117
0.0475391
0.0468054
0.0460169
0.0358691
0.0410037
0.0427256
0.0406313
0.0435558
0.0484601
0.0536108
0.0583473
0.0620733
0.0644693
0.0654382
0.0650312
0.0634234
0.0609654
0.0579621
0.0547683
0.0518284
0.0495351
0.0482093
0.047893
0.0405161
0.0425664
0.0414191
0.0437679
0.051667
0.061697
0.0719662
0.0808844
0.0872116
0.0902836
0.0898981
0.0863635
0.0804096
0.0730738
0.0653658
0.0582485
0.0524652
0.048449
0.0463119
0.0457767
0.0421582
0.0419909
0.041657
0.0488997
0.0625927
0.0793084
0.0964553
0.111151
0.12083
0.123914
0.120019
0.110197
0.0966049
0.0818827
0.0683609
0.0577136
0.050532
0.0464454
0.0446679
0.0444045
0.0426435
0.0410232
0.0423975
0.0542347
0.0741934
0.098913
0.124722
0.146786
0.160391
0.162462
0.152482
0.132805
0.107965
0.0832058
0.0630706
0.0500438
0.0438783
0.0422431
0.0425383
0.0433188
0.0427824
0.0400144
0.0425992
0.058074
0.0840644
0.117491
0.153616
0.185291
0.204918
0.207013
0.190228
0.158211
0.118627
0.0807861
0.0525001
0.0372329
0.0334746
0.0361568
0.0399534
0.0423774
0.0428973
0.0390165
0.0416956
0.0592187
0.0900424
0.131952
0.179818
0.224453
0.254724
0.261104
0.239501
0.194012
0.136395
0.0823015
0.0436186
0.0245311
0.0222425
0.0292709
0.0371578
0.0415509
0.0431411
0.0381584
0.0396598
0.0572342
0.0907779
0.139753
0.199919
0.261061
0.308253
0.325794
0.30358
0.244334
0.1656
0.0930359
0.0423385
0.0171899
0.0135262
0.0229434
0.0344511
0.0408301
0.0435514
0.0376547
0.0369431
0.0525363
0.0860917
0.139345
0.210269
0.289229
0.358347
0.394467
0.377532
0.305219
0.204078
0.113404
0.0508874
0.0181191
0.00972795
0.0183412
0.0321269
0.0402237
0.0441357
0.0378079
0.0342784
0.0462969
0.0770638
0.130541
0.207442
0.300002
0.389888
0.449249
0.444911
0.361335
0.243717
0.140145
0.0682887
0.0275526
0.0117708
0.0161822
0.0303871
0.0397341
0.0447908
0.0388091
0.032621
0.040017
0.065729
0.115081
0.190834
0.287006
0.385551
0.45672
0.466602
0.388661
0.273006
0.167949
0.0915626
0.0437403
0.019232
0.0167247
0.0293838
0.0393697
0.0454368
0.040639
0.0327858
0.0353772
0.0546939
0.0964625
0.164155
0.25293
0.34582
0.414585
0.426953
0.373216
0.282816
0.19067
0.116373
0.0637474
0.0306574
0.0198287
0.0291778
0.0391299
0.0459677
0.0430952
0.0351902
0.033822
0.0465026
0.0788251
0.133898
0.207691
0.285892
0.345742
0.364083
0.335556
0.274787
0.203558
0.137774
0.0838603
0.0438692
0.0249953
0.029825
0.0390232
0.0462046
0.0457246
0.0396011
0.036123
0.0431211
0.0659142
0.106927
0.162993
0.223591
0.27291
0.296201
0.288166
0.254018
0.204878
0.15132
0.100197
0.056587
0.0313405
0.0313887
0.0390564
0.0458478
0.0478167
0.0449921
0.0418615
0.0452372
0.0600015
0.0881258
0.127463
0.171263
0.209772
0.233887
0.238617
0.22401
0.194009
0.154056
0.109516
0.0665667
0.0378801
0.033673
0.0392482
0.0444185
0.0485833
0.0496985
0.0491393
0.051607
0.0610457
0.0791496
0.104801
0.134217
0.161954
0.182593
0.192172
0.188801
0.172594
0.145282
0.109937
0.072046
0.0436795
0.0363901
0.0395969
0.0413506
0.047155
0.0517769
0.0547755
0.0585493
0.065598
0.0771752
0.0928999
0.110968
0.128668
0.143067
0.151535
0.152153
0.143775
0.126423
0.101249
0.0720447
0.0478827
0.0392002
0.0400857
0.0392762
0.0445419
0.0504481
0.0558408
0.0612298
0.0675546
0.0753669
0.084539
0.094345
0.103635
0.111118
0.115437
0.115501
0.110392
0.100072
0.0847186
0.0663514
0.0496188
0.0416238
0.0406688
0.0398846
0.0421141
0.0462605
0.0508534
0.0555141
0.0601358
0.0646628
0.0689675
0.0728184
0.0759023
0.0778966
0.0784443
0.0772985
0.0742529
0.069564
0.0630894
0.0556043
0.0479536
0.0430164
0.0412721
0.0431465
0.0432899
0.043623
0.0442802
0.0451623
0.0460857
0.0469107
0.0475654
0.0480086
0.0482277
0.0482243
0.0480089
0.0476055
0.0470267
0.0463187
0.0454968
0.0446286
0.0436962
0.0428585
0.0417296
)
;

boundaryField
{
    movingWall
    {
        type            zeroGradient;
    }
    fixedWalls
    {
        type            zeroGradient;
    }
    frontAndBack
    {
        type            empty;
    }
}


// ************************************************************************* //
