/*--------------------------------*- C++ -*----------------------------------*\
  =========                 |
  \\      /  F ield         | OpenFOAM: The Open Source CFD Toolbox
   \\    /   O peration     | Website:  https://openfoam.org
    \\  /    A nd           | Version:  11
     \\/     M anipulation  |
\*---------------------------------------------------------------------------*/
FoamFile
{
    format      ascii;
    class       volScalarField;
    location    "11.5";
    object      C;
}
// * * * * * * * * * * * * * * * * * * * * * * * * * * * * * * * * * * * * * //

dimensions      [0 0 0 0 0 0 0];

internalField   nonuniform List<scalar> 
400
(
1.27175e-87
1.80531e-82
2.28521e-77
2.53913e-72
2.42592e-67
1.93765e-62
1.24208e-57
5.9908e-53
1.93254e-48
3.12718e-44
3.12718e-44
1.93107e-48
5.98067e-53
1.23861e-57
1.92975e-62
2.41253e-67
2.52103e-72
2.26489e-77
1.78579e-82
1.25537e-87
1.80531e-82
2.57085e-77
3.26457e-72
3.63886e-67
3.48773e-62
2.79467e-57
1.79722e-52
8.69628e-48
2.81436e-43
4.56891e-39
4.56891e-39
2.81269e-43
8.68459e-48
1.79317e-52
2.7854e-57
3.47194e-62
3.61743e-67
3.24044e-72
2.54762e-77
1.78579e-82
2.28521e-77
3.26457e-72
4.1587e-67
4.65031e-62
4.47146e-57
3.59443e-52
2.319e-47
1.12573e-42
3.65502e-38
5.95299e-34
5.95299e-34
3.65339e-38
1.12457e-42
2.31491e-47
3.58498e-52
4.45524e-57
4.6282e-62
4.1337e-67
3.24044e-72
2.26489e-77
2.53913e-72
3.63886e-67
4.65031e-62
5.2167e-57
5.0322e-52
4.05824e-47
2.6267e-42
1.27925e-37
4.16697e-33
6.80898e-29
6.80898e-29
4.16563e-33
1.27826e-37
2.6232e-42
4.05005e-47
5.01803e-52
5.19724e-57
4.6282e-62
3.61743e-67
2.52103e-72
2.42592e-67
3.48773e-62
4.47146e-57
5.0322e-52
4.86988e-47
3.94005e-42
2.55848e-37
1.25008e-32
4.08527e-28
6.69737e-24
6.69737e-24
4.08439e-28
1.24941e-32
2.55603e-37
3.93421e-42
4.85965e-47
5.01803e-52
4.45524e-57
3.47194e-62
2.41253e-67
1.93765e-62
2.79467e-57
3.59443e-52
4.05824e-47
3.94005e-42
3.1981e-37
2.08346e-32
1.02131e-27
3.34859e-23
5.50772e-19
5.50772e-19
3.34816e-23
1.02096e-27
2.08212e-32
3.19483e-37
3.93421e-42
4.05005e-47
3.58498e-52
2.7854e-57
1.92975e-62
1.24208e-57
1.79722e-52
2.319e-47
2.6267e-42
2.55848e-37
2.08346e-32
1.36174e-27
6.69714e-23
2.20303e-18
3.63547e-14
3.63547e-14
2.20288e-18
6.69583e-23
1.36121e-27
2.08212e-32
2.55603e-37
2.6232e-42
2.31491e-47
1.79317e-52
1.23861e-57
5.9908e-53
8.69628e-48
1.12573e-42
1.27925e-37
1.25008e-32
1.02131e-27
6.69714e-23
3.30453e-18
1.09061e-13
1.80571e-09
1.80571e-09
1.09059e-13
3.30424e-18
6.69583e-23
1.02096e-27
1.24941e-32
1.27826e-37
1.12457e-42
8.68459e-48
5.98067e-53
1.93254e-48
2.81436e-43
3.65502e-38
4.16697e-33
4.08527e-28
3.34859e-23
2.20303e-18
1.09061e-13
3.61135e-09
5.9991e-05
5.9991e-05
3.61135e-09
1.09059e-13
2.20288e-18
3.34816e-23
4.08439e-28
4.16563e-33
3.65339e-38
2.81269e-43
1.93107e-48
3.12718e-44
4.56891e-39
5.95299e-34
6.80898e-29
6.69737e-24
5.50772e-19
3.63547e-14
1.80571e-09
5.9991e-05
0.99988
0.99988
5.9991e-05
1.80571e-09
3.63547e-14
5.50772e-19
6.69737e-24
6.80898e-29
5.95299e-34
4.56891e-39
3.12718e-44
3.12718e-44
4.56891e-39
5.95299e-34
6.80898e-29
6.69737e-24
5.50772e-19
3.63547e-14
1.80571e-09
5.9991e-05
0.99988
0.99988
5.9991e-05
1.80571e-09
3.63547e-14
5.50772e-19
6.69737e-24
6.80898e-29
5.95299e-34
4.56891e-39
3.12718e-44
1.93107e-48
2.81269e-43
3.65339e-38
4.16563e-33
4.08439e-28
3.34816e-23
2.20288e-18
1.09059e-13
3.61135e-09
5.9991e-05
5.9991e-05
3.61135e-09
1.09061e-13
2.20303e-18
3.34859e-23
4.08527e-28
4.16697e-33
3.65502e-38
2.81436e-43
1.93254e-48
5.98067e-53
8.68459e-48
1.12457e-42
1.27826e-37
1.24941e-32
1.02096e-27
6.69583e-23
3.30424e-18
1.09059e-13
1.80571e-09
1.80571e-09
1.09061e-13
3.30453e-18
6.69714e-23
1.02131e-27
1.25008e-32
1.27925e-37
1.12573e-42
8.69628e-48
5.9908e-53
1.23861e-57
1.79317e-52
2.31491e-47
2.6232e-42
2.55603e-37
2.08212e-32
1.36121e-27
6.69583e-23
2.20288e-18
3.63547e-14
3.63547e-14
2.20303e-18
6.69714e-23
1.36174e-27
2.08346e-32
2.55848e-37
2.6267e-42
2.319e-47
1.79722e-52
1.24208e-57
1.92975e-62
2.7854e-57
3.58498e-52
4.05005e-47
3.93421e-42
3.19483e-37
2.08212e-32
1.02096e-27
3.34816e-23
5.50772e-19
5.50772e-19
3.34859e-23
1.02131e-27
2.08346e-32
3.1981e-37
3.94005e-42
4.05824e-47
3.59443e-52
2.79467e-57
1.93765e-62
2.41253e-67
3.47194e-62
4.45524e-57
5.01803e-52
4.85965e-47
3.93421e-42
2.55603e-37
1.24941e-32
4.08439e-28
6.69737e-24
6.69737e-24
4.08527e-28
1.25008e-32
2.55848e-37
3.94005e-42
4.86988e-47
5.0322e-52
4.47146e-57
3.48773e-62
2.42592e-67
2.52103e-72
3.61743e-67
4.6282e-62
5.19724e-57
5.01803e-52
4.05005e-47
2.6232e-42
1.27826e-37
4.16563e-33
6.80898e-29
6.80898e-29
4.16697e-33
1.27925e-37
2.6267e-42
4.05824e-47
5.0322e-52
5.2167e-57
4.65031e-62
3.63886e-67
2.53913e-72
2.26489e-77
3.24044e-72
4.1337e-67
4.6282e-62
4.45524e-57
3.58498e-52
2.31491e-47
1.12457e-42
3.65339e-38
5.95299e-34
5.95299e-34
3.65502e-38
1.12573e-42
2.319e-47
3.59443e-52
4.47146e-57
4.65031e-62
4.1587e-67
3.26457e-72
2.28521e-77
1.78579e-82
2.54762e-77
3.24044e-72
3.61743e-67
3.47194e-62
2.7854e-57
1.79317e-52
8.68459e-48
2.81269e-43
4.56891e-39
4.56891e-39
2.81436e-43
8.69628e-48
1.79722e-52
2.79467e-57
3.48773e-62
3.63886e-67
3.26457e-72
2.57085e-77
1.80531e-82
1.25537e-87
1.78579e-82
2.26489e-77
2.52103e-72
2.41253e-67
1.92975e-62
1.23861e-57
5.98067e-53
1.93107e-48
3.12718e-44
3.12718e-44
1.93254e-48
5.9908e-53
1.24208e-57
1.93765e-62
2.42592e-67
2.53913e-72
2.28521e-77
1.80531e-82
1.27175e-87
)
;

boundaryField
{
    movingWall
    {
        type            zeroGradient;
    }
    fixedWalls
    {
        type            zeroGradient;
    }
    frontAndBack
    {
        type            empty;
    }
}


// ************************************************************************* //
