/*--------------------------------*- C++ -*----------------------------------*\
  =========                 |
  \\      /  F ield         | OpenFOAM: The Open Source CFD Toolbox
   \\    /   O peration     | Website:  https://openfoam.org
    \\  /    A nd           | Version:  11
     \\/     M anipulation  |
\*---------------------------------------------------------------------------*/
FoamFile
{
    format      ascii;
    class       volScalarField;
    location    "13.625";
    object      C;
}
// * * * * * * * * * * * * * * * * * * * * * * * * * * * * * * * * * * * * * //

dimensions      [0 0 0 0 0 0 0];

internalField   nonuniform List<scalar> 
400
(
0.0105107
0.0208003
0.0454713
0.0632545
0.0630637
0.0555868
0.0500096
0.0454758
0.0417894
0.0387415
0.03619
0.0340586
0.0323465
0.0312085
0.0306011
0.0306078
0.0312057
0.0324986
0.0346402
0.0377961
0.0248576
0.0376631
0.0574676
0.0631968
0.0550741
0.0436014
0.033707
0.0252308
0.0185179
0.0136643
0.0106716
0.00949651
0.0100158
0.0118209
0.0146908
0.0182286
0.0218362
0.0248314
0.0265444
0.026737
0.0330342
0.0514792
0.0647718
0.060618
0.0462767
0.0309684
0.0174447
0.00629835
-0.00176132
-0.00635586
-0.00730098
-0.00476376
0.000730629
0.00822159
0.0163865
0.0239211
0.0297879
0.0333765
0.0345668
0.0338886
0.0388101
0.0614063
0.0705151
0.0610448
0.0435814
0.0254657
0.0083612
-0.00634737
-0.0166265
-0.0206222
-0.017389
-0.00746533
0.00711479
0.0229831
0.0365954
0.0453211
0.04836
0.0468911
0.0432014
0.0397305
0.0426683
0.0696468
0.0787749
0.0691795
0.0524043
0.0338373
0.0146428
-0.00243972
-0.0131441
-0.0137208
-0.00277963
0.0179335
0.0436976
0.0678759
0.0841728
0.0886877
0.0817196
0.0678867
0.0536172
0.0441867
0.0449024
0.0772444
0.0911457
0.0869811
0.0761252
0.0624556
0.0471
0.034173
0.0294964
0.0372807
0.057912
0.087543
0.118673
0.143414
0.154889
0.148777
0.126186
0.0947163
0.0655341
0.0478082
0.0457986
0.0840645
0.106716
0.113053
0.113882
0.112488
0.110604
0.113376
0.126221
0.15025
0.180838
0.209875
0.229307
0.23767
0.232875
0.211359
0.172747
0.123521
0.077916
0.050771
0.0453967
0.0890874
0.122835
0.142861
0.159158
0.175383
0.19478
0.223867
0.266399
0.316188
0.356452
0.369855
0.353734
0.32687
0.296205
0.259037
0.210457
0.149478
0.0895303
0.0531521
0.0439321
0.0912226
0.136058
0.170046
0.20146
0.234359
0.273707
0.328282
0.40193
0.48139
0.531594
0.516394
0.448858
0.380816
0.32517
0.278572
0.230708
0.168472
0.0991924
0.0549496
0.0415529
0.0894198
0.14324
0.188541
0.230468
0.272396
0.31921
0.380147
0.461173
0.553099
0.611585
0.568373
0.464625
0.37441
0.309502
0.265441
0.229807
0.177946
0.10615
0.0561991
0.0388506
0.0830961
0.141605
0.193851
0.23958
0.280192
0.318652
0.361493
0.413036
0.467105
0.508807
0.465202
0.37732
0.302931
0.252685
0.224549
0.209548
0.177183
0.109851
0.0569033
0.0362664
0.0729694
0.1302
0.184174
0.227618
0.259034
0.279275
0.29177
0.299083
0.299884
0.289537
0.259098
0.222085
0.1909
0.171624
0.167591
0.176056
0.167156
0.110217
0.0571147
0.0342427
0.0606491
0.110219
0.160489
0.197875
0.217645
0.219528
0.206002
0.180405
0.147608
0.114347
0.0907272
0.08101
0.0819367
0.0903098
0.10813
0.137542
0.150438
0.107212
0.056834
0.0333088
0.048534
0.0853137
0.126706
0.156214
0.166491
0.156878
0.130618
0.092966
0.0518246
0.0173736
-0.00155438
-0.00272649
0.00925919
0.029512
0.0588033
0.10092
0.130162
0.100848
0.05607
0.0339961
0.0392105
0.0608118
0.0892697
0.109805
0.114166
0.101333
0.0750147
0.0412167
0.00728451
-0.0190582
-0.0328951
-0.0333013
-0.0226533
-0.00322434
0.0266857
0.0717045
0.10938
0.0920425
0.0547956
0.0363488
0.0345091
0.0422533
0.0563597
0.0670928
0.0676597
0.056771
0.0373231
0.0141502
-0.00768949
-0.0239597
-0.032389
-0.0329034
-0.0262478
-0.0121723
0.0124579
0.0526782
0.0904447
0.0818403
0.0530693
0.0400153
0.0348194
0.0330859
0.0352187
0.0369007
0.0343123
0.0264423
0.0147927
0.00205442
-0.00916758
-0.0170819
-0.0208315
-0.0204575
-0.0158871
-0.00590066
0.0126975
0.0438878
0.0746711
0.0710433
0.0509749
0.0407738
0.0370764
0.0322859
0.0282486
0.0244562
0.0199086
0.0143174
0.00823473
0.00261316
-0.00166629
-0.00409447
-0.00443661
-0.00262627
0.00185625
0.00988918
0.0232239
0.0433894
0.0622667
0.0603879
0.0486627
0.0382448
0.0404851
0.037942
0.0343276
0.0305657
0.0270501
0.0240071
0.0216306
0.0200886
0.0195016
0.0199074
0.0213423
0.0238617
0.0275603
0.0325497
0.0389
0.0466659
0.0521703
0.0504301
0.046303
0.0277012
0.0287693
0.0301983
0.0313486
0.0320555
0.0324815
0.0328221
0.0331993
0.0336742
0.0342657
0.0349743
0.0357923
0.0367087
0.0377101
0.0387679
0.0398691
0.041012
0.0419855
0.0425573
0.0443689
)
;

boundaryField
{
    movingWall
    {
        type            zeroGradient;
    }
    fixedWalls
    {
        type            zeroGradient;
    }
    frontAndBack
    {
        type            empty;
    }
}


// ************************************************************************* //
