/*--------------------------------*- C++ -*----------------------------------*\
  =========                 |
  \\      /  F ield         | OpenFOAM: The Open Source CFD Toolbox
   \\    /   O peration     | Website:  https://openfoam.org
    \\  /    A nd           | Version:  11
     \\/     M anipulation  |
\*---------------------------------------------------------------------------*/
FoamFile
{
    format      ascii;
    class       volScalarField;
    location    "16.5";
    object      C;
}
// * * * * * * * * * * * * * * * * * * * * * * * * * * * * * * * * * * * * * //

dimensions      [0 0 0 0 0 0 0];

internalField   nonuniform List<scalar> 
400
(
0.01981
0.0296415
0.0426083
0.0420002
0.0474823
0.0494527
0.0500624
0.0499855
0.0494817
0.0487259
0.047825
0.046854
0.0458731
0.0449508
0.0441455
0.043537
0.0431903
0.0432123
0.0437031
0.0446962
0.0333716
0.0382395
0.0435066
0.047445
0.0528911
0.054838
0.0548275
0.0532203
0.0504896
0.0471363
0.0436246
0.0403488
0.0376311
0.0356714
0.0345766
0.0343891
0.0349772
0.0361274
0.0375101
0.0387758
0.0381927
0.0421354
0.0479613
0.0558315
0.0619476
0.0638928
0.0624144
0.0578674
0.0511538
0.0433775
0.035669
0.0290645
0.0243908
0.0220804
0.0221412
0.0242313
0.0276589
0.0314994
0.034724
0.036502
0.0400452
0.0451411
0.0548332
0.066641
0.0747399
0.0774165
0.0744077
0.0658714
0.0531802
0.0385744
0.0245921
0.0135151
0.00690481
0.00515047
0.00770591
0.0133579
0.0205681
0.027771
0.0334658
0.0363872
0.0408131
0.048096
0.0628448
0.0795559
0.0916257
0.0967602
0.0933171
0.0809826
0.061778
0.0395137
0.0185791
0.00277935
-0.00562032
-0.00648379
-0.00135236
0.00718561
0.016724
0.0257407
0.0330027
0.0367387
0.0410909
0.0506167
0.0707538
0.0936347
0.112045
0.122558
0.122051
0.109544
0.0873048
0.0600017
0.0332611
0.0123561
0.000697191
-0.00118195
0.00411719
0.0122407
0.0200225
0.0271055
0.0337473
0.0374388
0.0410811
0.0522035
0.077296
0.107075
0.133854
0.153327
0.161351
0.156132
0.138881
0.112846
0.082895
0.0553987
0.0362485
0.0284984
0.0291565
0.0318796
0.0325251
0.0327619
0.0358579
0.0383801
0.0408904
0.0524417
0.0812619
0.117501
0.153322
0.184395
0.206677
0.217952
0.216999
0.202291
0.17399
0.137812
0.104008
0.0829842
0.072697
0.0649266
0.0538019
0.0427656
0.0393525
0.0395154
0.0406322
0.0512413
0.0817467
0.122576
0.165991
0.208492
0.247588
0.282056
0.308501
0.318099
0.30021
0.254078
0.197611
0.155656
0.128446
0.106436
0.0811435
0.0562568
0.044073
0.040805
0.0404781
0.0486719
0.0783849
0.120829
0.168242
0.218288
0.270742
0.32703
0.384897
0.430692
0.435302
0.377821
0.297682
0.232636
0.186382
0.14939
0.11056
0.0718396
0.0497323
0.0422052
0.0404978
0.0452767
0.0712917
0.111687
0.158377
0.209514
0.266668
0.333559
0.40963
0.479925
0.511797
0.459286
0.372175
0.294138
0.234413
0.186254
0.13771
0.0878571
0.0559762
0.0436742
0.0407824
0.0417808
0.0615253
0.0961681
0.137426
0.182916
0.23477
0.297552
0.371561
0.442905
0.47832
0.45346
0.390418
0.320998
0.261355
0.210725
0.15871
0.102605
0.0624113
0.0451708
0.0414504
0.0389659
0.0508288
0.0766856
0.108893
0.143969
0.183332
0.231111
0.288285
0.345268
0.380094
0.37934
0.348835
0.305068
0.260946
0.21884
0.171084
0.114503
0.0685443
0.0466428
0.0426186
0.037576
0.0414387
0.0568214
0.0779778
0.100767
0.125309
0.154637
0.190488
0.228642
0.258654
0.272805
0.270153
0.255687
0.235328
0.210171
0.173816
0.122183
0.0736477
0.0480298
0.0443358
0.0381241
0.0354947
0.0406146
0.0505364
0.0616584
0.073164
0.08688
0.104889
0.126856
0.149527
0.169224
0.183605
0.191985
0.194435
0.188548
0.167272
0.124802
0.0770744
0.0492664
0.0465218
0.0405924
0.03426
0.0315423
0.0320647
0.0338568
0.0361052
0.0397786
0.046679
0.0580492
0.0738844
0.0930178
0.113841
0.134233
0.151513
0.16054
0.153374
0.122029
0.0783089
0.0502678
0.0476923
0.0440678
0.0375522
0.0311975
0.0261956
0.0223734
0.0196384
0.0186382
0.0205945
0.0267388
0.037838
0.0538105
0.0737757
0.0960028
0.117512
0.13276
0.134596
0.11367
0.076734
0.0509251
0.0438205
0.0457254
0.0427634
0.0376628
0.0323143
0.027669
0.0243175
0.0228808
0.0240539
0.0285031
0.0366502
0.0485299
0.0634632
0.0800626
0.0963911
0.108617
0.112475
0.099226
0.0717472
0.0511459
0.0394879
0.0459737
0.0472517
0.0464652
0.0449127
0.0434966
0.0428207
0.0432874
0.0451538
0.0485571
0.0534804
0.0597467
0.0669972
0.0743794
0.0811923
0.0853876
0.0861114
0.0778617
0.0628172
0.0508311
0.0358472
0.037989
0.040257
0.0421719
0.0436537
0.0448301
0.0458592
0.0468538
0.0478687
0.0489151
0.0499742
0.0510045
0.0519601
0.0527605
0.0533544
0.0536455
0.0536819
0.0529553
0.0518405
0.0500713
)
;

boundaryField
{
    movingWall
    {
        type            zeroGradient;
    }
    fixedWalls
    {
        type            zeroGradient;
    }
    frontAndBack
    {
        type            empty;
    }
}


// ************************************************************************* //
