/*--------------------------------*- C++ -*----------------------------------*\
  =========                 |
  \\      /  F ield         | OpenFOAM: The Open Source CFD Toolbox
   \\    /   O peration     | Website:  https://openfoam.org
    \\  /    A nd           | Version:  11
     \\/     M anipulation  |
\*---------------------------------------------------------------------------*/
FoamFile
{
    format      ascii;
    class       volScalarField;
    location    "11.625";
    object      C;
}
// * * * * * * * * * * * * * * * * * * * * * * * * * * * * * * * * * * * * * //

dimensions      [0 0 0 0 0 0 0];

internalField   nonuniform List<scalar> 
400
(
0.00318049
0.0144869
0.0629974
0.0697751
0.0220161
0.0116367
0.0102733
0.00874213
0.00759583
0.0064507
0.00530979
0.00416714
0.00307194
0.00218748
0.00160963
0.00151354
0.00197603
0.00304566
0.00472131
0.00706232
0.0202659
0.0467137
0.0669863
0.0393503
0.00806489
0.00374677
0.00249524
0.000891501
-0.000777762
-0.00270788
-0.00468136
-0.00635502
-0.00725367
-0.00694086
-0.0049079
-0.00116319
0.00355453
0.00764194
0.00895371
0.00631108
0.0348333
0.0636552
0.0525624
0.0145088
-0.00151716
-0.000553543
0.000252909
-4.77067e-05
-0.00161896
-0.00431052
-0.00727255
-0.00920805
-0.0085991
-0.00423067
0.00395927
0.0147838
0.0258572
0.0340297
0.0363968
0.0327575
0.045753
0.0684818
0.0366934
0.000112015
-0.00662569
-0.00382054
-0.00345713
-0.00532369
-0.00892702
-0.0129184
-0.0149782
-0.012441
-0.00337774
0.0117757
0.0302173
0.0479753
0.0611007
0.0665245
0.0627792
0.0531214
0.0531719
0.0715044
0.029091
-0.00385584
-0.00741014
-0.00787144
-0.0136047
-0.0220768
-0.029885
-0.0326766
-0.0257875
-0.00623131
0.0249842
0.0604516
0.0911783
0.110553
0.116115
0.10839
0.0890973
0.0658523
0.0581757
0.0787802
0.0345508
0.00633802
0.0044118
-0.000656391
-0.0152695
-0.0335556
-0.0466539
-0.0440245
-0.0172435
0.0338012
0.0973191
0.154222
0.189963
0.199243
0.185901
0.156466
0.115228
0.0737006
0.06135
0.0920261
0.0550729
0.0360746
0.0416801
0.0403763
0.0262601
0.00831435
0.00084731
0.019725
0.0734847
0.15288
0.230358
0.285407
0.305351
0.291225
0.254043
0.202659
0.138901
0.0784007
0.0622293
0.109755
0.0892123
0.0859398
0.10876
0.125897
0.132352
0.140603
0.167421
0.223906
0.301786
0.371451
0.404033
0.413253
0.393557
0.351173
0.298393
0.236882
0.157223
0.0807881
0.0603823
0.128246
0.131406
0.148123
0.193098
0.236267
0.274907
0.327535
0.412821
0.525213
0.614608
0.614762
0.539943
0.475097
0.411544
0.351433
0.302242
0.251218
0.167775
0.0813298
0.0549393
0.142635
0.173111
0.208518
0.270435
0.330979
0.387869
0.460308
0.562766
0.686466
0.770156
0.696508
0.534447
0.424538
0.345358
0.289635
0.263214
0.242659
0.169639
0.0804459
0.0468101
0.146288
0.204483
0.253076
0.317383
0.374743
0.421043
0.469719
0.521278
0.545777
0.557449
0.474441
0.353105
0.273858
0.221762
0.190398
0.194512
0.21384
0.162934
0.0784218
0.0371338
0.135884
0.215958
0.272024
0.323762
0.358253
0.37244
0.374846
0.360375
0.297663
0.210207
0.138335
0.108708
0.101115
0.093982
0.0903669
0.118209
0.171905
0.149237
0.0755952
0.0275299
0.112248
0.201738
0.260834
0.293904
0.298137
0.277214
0.241073
0.190465
0.112176
0.0285292
-0.0200263
-0.0236363
-0.00529028
0.00968153
0.0181751
0.0537931
0.126615
0.130599
0.0721741
0.0202616
0.0808211
0.163538
0.220884
0.239353
0.220945
0.177564
0.124475
0.0704497
0.0162099
-0.0270917
-0.046856
-0.0435035
-0.0288459
-0.0182182
-0.0157162
0.0112054
0.086467
0.10965
0.0683555
0.0180533
0.0503375
0.111604
0.160231
0.171856
0.14675
0.0998917
0.0494451
0.00785744
-0.0201552
-0.0330789
-0.032643
-0.0243471
-0.0151576
-0.0132941
-0.021143
-0.00880283
0.0567241
0.0896689
0.0642349
0.0218386
0.029393
0.0620789
0.0943305
0.102724
0.0838235
0.0488738
0.0129727
-0.0130276
-0.0251473
-0.0251839
-0.0178948
-0.0085203
-0.00216133
-0.00421147
-0.0158067
-0.012495
0.038828
0.0728311
0.0600596
0.0335951
0.0229709
0.0292724
0.0418151
0.045597
0.0359644
0.0178547
-0.000507843
-0.012898
-0.0171604
-0.0148016
-0.00907424
-0.0033672
-0.000733009
-0.00347158
-0.0107862
-0.00672577
0.0314966
0.0600265
0.056043
0.059048
0.0313116
0.0183076
0.014112
0.0112031
0.00608878
-0.0007036
-0.00694959
-0.0108391
-0.0118942
-0.0108427
-0.00896851
-0.00738453
-0.00644122
-0.0059476
-0.0040026
0.00585982
0.0321656
0.0511898
0.0523744
0.0817704
0.051349
0.0334226
0.0217366
0.0139501
0.00863364
0.00503248
0.00279542
0.00170424
0.00152528
0.00201474
0.00303426
0.00459322
0.00701933
0.0105711
0.0163526
0.0251401
0.0373618
0.0456392
0.049207
0.0726958
0.0631292
0.0543247
0.0473862
0.0422464
0.0386535
0.0362736
0.0347683
0.0338877
0.0334546
0.0333682
0.0335834
0.0340797
0.0348792
0.0359671
0.0373382
0.0389471
0.0409245
0.0426974
0.0469812
)
;

boundaryField
{
    movingWall
    {
        type            zeroGradient;
    }
    fixedWalls
    {
        type            zeroGradient;
    }
    frontAndBack
    {
        type            empty;
    }
}


// ************************************************************************* //
