/*--------------------------------*- C++ -*----------------------------------*\
  =========                 |
  \\      /  F ield         | OpenFOAM: The Open Source CFD Toolbox
   \\    /   O peration     | Website:  https://openfoam.org
    \\  /    A nd           | Version:  11
     \\/     M anipulation  |
\*---------------------------------------------------------------------------*/
FoamFile
{
    format      ascii;
    class       volScalarField;
    location    "13.25";
    object      C;
}
// * * * * * * * * * * * * * * * * * * * * * * * * * * * * * * * * * * * * * //

dimensions      [0 0 0 0 0 0 0];

internalField   nonuniform List<scalar> 
400
(
0.00935976
0.0199992
0.0406068
0.0339918
0.0413206
0.051958
0.0602638
0.0660664
0.0694705
0.070845
0.070581
0.0690512
0.0666058
0.0636182
0.060502
0.0576189
0.0553381
0.0540365
0.0540189
0.0553118
0.0242714
0.0333805
0.0380329
0.0428316
0.06027
0.0789861
0.0938225
0.103005
0.105966
0.103228
0.0959803
0.0856989
0.0739896
0.0624522
0.052305
0.0445692
0.0398706
0.0383454
0.0395801
0.0425003
0.0316647
0.036406
0.0409915
0.0591531
0.0881598
0.116539
0.13875
0.151783
0.154498
0.147259
0.13152
0.109884
0.0857934
0.0629708
0.0444754
0.0322677
0.0267294
0.0266478
0.0296288
0.0328201
0.034285
0.0364102
0.0461057
0.0751251
0.113857
0.151923
0.183641
0.20446
0.210711
0.200495
0.174695
0.137741
0.0967635
0.0594395
0.0316269
0.0162208
0.0124084
0.0165413
0.0237955
0.0294811
0.0350277
0.0352642
0.0487944
0.0838476
0.128623
0.174737
0.216725
0.248049
0.26138
0.25123
0.216894
0.164113
0.104153
0.0502222
0.0128089
-0.00429841
-0.00445606
0.00527435
0.0177505
0.026564
0.0352172
0.0331223
0.0467169
0.0820129
0.127547
0.177804
0.228899
0.273796
0.302018
0.302629
0.269197
0.204945
0.124515
0.049923
-0.000205634
-0.020639
-0.0185158
-0.00459516
0.0125095
0.0245064
0.0353663
0.030278
0.040113
0.0702214
0.110633
0.159341
0.216159
0.276959
0.330659
0.359346
0.344257
0.278258
0.176461
0.0745703
0.00529448
-0.0239102
-0.0248123
-0.0112539
0.00828133
0.0230248
0.0357083
0.0273799
0.0308496
0.0520011
0.0823994
0.123129
0.178916
0.2525
0.337855
0.412765
0.440132
0.388948
0.26677
0.131794
0.0367929
-0.00828401
-0.0197613
-0.0130754
0.00545503
0.0220766
0.0362817
0.025148
0.0213382
0.0321066
0.0500113
0.0774479
0.122695
0.19711
0.307435
0.437918
0.53334
0.518831
0.381263
0.215601
0.09348
0.0270998
-0.00230738
-0.00932313
0.00433256
0.0216421
0.0370965
0.0241967
0.0135696
0.0147894
0.0207355
0.0331065
0.0602908
0.119206
0.232682
0.406248
0.578257
0.615058
0.481402
0.305421
0.165858
0.0781672
0.0262606
2.12632e-05
0.0050555
0.0216904
0.0380092
0.0248776
0.00903854
0.00263314
-0.000533127
-0.000758712
0.0079516
0.0428428
0.134456
0.303765
0.524054
0.6034
0.518833
0.372414
0.237478
0.136432
0.0625491
0.0143581
0.00775752
0.0222147
0.0389389
0.027075
0.00837661
-0.00340817
-0.0121252
-0.0200837
-0.0242254
-0.00996067
0.0523093
0.186757
0.365183
0.476822
0.475156
0.394895
0.290542
0.191047
0.101413
0.0324913
0.0124252
0.0231881
0.03982
0.0304317
0.0114417
-0.00360893
-0.0150654
-0.0260134
-0.0356909
-0.0332124
0.00480156
0.098673
0.230207
0.342282
0.391019
0.374026
0.314092
0.231571
0.136986
0.0525351
0.0189897
0.0245986
0.0405531
0.0343971
0.0174938
0.00112414
-0.0115823
-0.0227551
-0.0328178
-0.0346511
-0.0125293
0.047702
0.13947
0.234699
0.302559
0.327169
0.308511
0.251917
0.164076
0.0718995
0.0271033
0.0264242
0.0409614
0.0382917
0.0254379
0.00983222
-0.00335327
-0.014112
-0.0227745
-0.0252679
-0.0124253
0.0244838
0.0851701
0.157829
0.224714
0.269631
0.281238
0.251572
0.178953
0.0880086
0.035906
0.0286694
0.0408928
0.0416572
0.0340309
0.0214918
0.00914636
-0.00105097
-0.00841214
-0.010548
-0.00264947
0.0202322
0.0597346
0.111972
0.168347
0.216916
0.243837
0.234383
0.180108
0.0986779
0.0443891
0.0312471
0.0359331
0.0423792
0.0415341
0.0346362
0.0257379
0.0176888
0.0122256
0.0112429
0.0172904
0.0329721
0.0596866
0.0963587
0.138712
0.179066
0.205986
0.205302
0.16752
0.101908
0.0512619
0.0339923
0.0240614
0.0385468
0.0454416
0.0462895
0.0440973
0.0414813
0.0404154
0.0425303
0.0492316
0.0616214
0.0800809
0.103824
0.13009
0.153737
0.168486
0.165917
0.140943
0.0953244
0.054836
0.0366596
0.0169272
0.0317234
0.0416944
0.0484416
0.0531106
0.0569057
0.0608845
0.0658395
0.0722385
0.0802039
0.0894658
0.0992779
0.108439
0.114925
0.117259
0.112149
0.0992547
0.0761112
0.0530035
0.0388975
0.0236441
0.0277779
0.0319205
0.0357264
0.0391387
0.0421546
0.0448291
0.0472345
0.0493898
0.0512767
0.0528379
0.0539893
0.0546621
0.0547415
0.0542146
0.0530126
0.0512797
0.0485486
0.0456453
0.0401806
)
;

boundaryField
{
    movingWall
    {
        type            zeroGradient;
    }
    fixedWalls
    {
        type            zeroGradient;
    }
    frontAndBack
    {
        type            empty;
    }
}


// ************************************************************************* //
