/*--------------------------------*- C++ -*----------------------------------*\
  =========                 |
  \\      /  F ield         | OpenFOAM: The Open Source CFD Toolbox
   \\    /   O peration     | Website:  https://openfoam.org
    \\  /    A nd           | Version:  11
     \\/     M anipulation  |
\*---------------------------------------------------------------------------*/
FoamFile
{
    format      ascii;
    class       volScalarField;
    location    "11.125";
    object      C;
}
// * * * * * * * * * * * * * * * * * * * * * * * * * * * * * * * * * * * * * //

dimensions      [0 0 0 0 0 0 0];

internalField   nonuniform List<scalar> 
400
(
0.000887942
0.0167571
0.0239359
-0.00147537
0.0281145
0.0651352
0.100441
0.123398
0.132686
0.130164
0.118962
0.102338
0.0834166
0.065453
0.0503365
0.0394862
0.0335615
0.0332572
0.0391652
0.0514994
0.02547
0.0210543
0.0102748
0.0241979
0.0763993
0.13196
0.175136
0.194761
0.191082
0.16902
0.135328
0.0966096
0.058674
0.0255829
0.00132777
-0.0122111
-0.0159152
-0.0133755
-0.00917138
-0.0063195
0.0317525
0.013213
0.012044
0.0514168
0.113648
0.174277
0.221298
0.250929
0.264078
0.259201
0.233605
0.187838
0.12906
0.0707968
0.0257798
0.000934691
-0.00571005
-0.00295883
0.000367743
0.00102463
0.0312193
0.00734478
0.0154985
0.0575248
0.109141
0.160041
0.211389
0.267174
0.320905
0.353313
0.3446
0.288755
0.200442
0.107879
0.0376951
0.00254661
-0.00471654
-0.00128535
0.00106992
0.0010256
0.0299421
0.00388204
0.0133524
0.0423347
0.0713055
0.104961
0.157302
0.236176
0.326884
0.395233
0.406077
0.344771
0.230461
0.109108
0.0255318
-0.00616851
-0.00593756
-0.000294894
0.000714313
-0.000248242
0.0294695
0.00164353
0.00739896
0.0193644
0.0259129
0.0429113
0.0925583
0.18645
0.30866
0.415227
0.451026
0.38389
0.237445
0.0861084
-0.00121237
-0.017916
-0.00598694
0.00132544
0.00107242
0.00013597
0.029856
0.000149843
0.00177488
0.00118029
-0.00714546
-0.00301835
0.0384944
0.135849
0.282933
0.433642
0.506919
0.437577
0.248479
0.0570873
-0.0307356
-0.0281871
-0.00543086
0.00216566
0.000820971
-4.10433e-05
0.0311747
-0.000709316
-0.00132596
-0.0073701
-0.021826
-0.0266721
0.000237477
0.0847297
0.240845
0.438054
0.574934
0.526924
0.286734
0.0408463
-0.0521615
-0.0353309
-0.00572876
0.00200093
0.000548179
-0.000343718
0.0333744
-0.00103242
-0.00211835
-0.00795754
-0.0218721
-0.0314763
-0.0232743
0.0284436
0.162924
0.398119
0.640844
0.666068
0.366274
0.0564809
-0.0558062
-0.0398121
-0.00922
-4.00592e-05
-1.29875e-05
-0.000922779
0.0368576
-0.00108259
-0.0018243
-0.00473172
-0.014678
-0.0239686
-0.0302295
-0.02112
0.0508384
0.272048
0.633774
0.816818
0.477163
0.12052
-0.0286753
-0.0371766
-0.0150169
-0.00388149
-0.0010183
-0.00174083
0.0414757
2.30288e-05
-0.00191613
-0.00132673
-0.00665008
-0.0122578
-0.0230738
-0.0423703
-0.0290517
0.139378
0.633354
0.832885
0.567976
0.227898
0.0375598
-0.0185548
-0.0186285
-0.00854371
-0.00259036
-0.00276063
0.0474219
0.0030961
-0.0028651
0.000219902
-0.00104912
-0.00263681
-0.0114654
-0.0389914
-0.0486898
0.0832879
0.442334
0.666655
0.581379
0.34034
0.134009
0.0226491
-0.0139677
-0.0123124
-0.00467833
-0.00389582
0.055229
0.00915128
-0.00385177
-0.000642164
0.00146628
0.00282035
-0.00283372
-0.026703
-0.0367019
0.0666502
0.311661
0.52271
0.551669
0.419331
0.23373
0.0826808
0.00340625
-0.0129995
-0.00696153
-0.00500939
0.0653312
0.0191662
-0.00287252
-0.00320071
0.00111593
0.00489604
0.00163396
-0.0159966
-0.0223031
0.0496265
0.218593
0.403542
0.496027
0.453403
0.312186
0.148241
0.0321754
-0.00873011
-0.00866097
-0.00590301
0.0800023
0.0347662
0.00307082
-0.00538615
-0.00244726
0.00245529
0.000852002
-0.0118992
-0.0173528
0.0261516
0.139462
0.290634
0.409608
0.435685
0.353711
0.204849
0.067087
0.0010161
-0.00868334
-0.00629887
0.101077
0.0589998
0.0190851
-0.00159597
-0.00688121
-0.00623271
-0.00911509
-0.0191218
-0.0240019
0.00242937
0.0799245
0.200071
0.322067
0.388808
0.358716
0.240218
0.0998823
0.0153838
-0.00594255
-0.00582105
0.0947124
0.0809835
0.048316
0.0198903
0.00275801
-0.00665116
-0.0144391
-0.0221447
-0.0216167
0.00300482
0.0650345
0.161782
0.267796
0.33908
0.33417
0.246434
0.122099
0.0323019
0.000371371
-0.00406064
0.0359401
0.0783085
0.0780793
0.0622802
0.0462614
0.0346339
0.0279039
0.0278047
0.0393743
0.06938
0.12131
0.189766
0.256605
0.295424
0.284616
0.219853
0.126254
0.0477228
0.0100415
-0.000707291
0.00171267
0.0611529
0.0872712
0.0978108
0.101683
0.104278
0.108744
0.117281
0.131431
0.151541
0.175737
0.199313
0.215148
0.215058
0.195291
0.154804
0.102959
0.0526381
0.020407
0.00417872
-0.00987115
0.0037005
0.0183252
0.0316363
0.0425247
0.0510632
0.0578468
0.0634658
0.0681546
0.0718451
0.0742084
0.0748064
0.073312
0.0694597
0.0634063
0.0554899
0.0463576
0.0362096
0.0254915
0.00926244
)
;

boundaryField
{
    movingWall
    {
        type            zeroGradient;
    }
    fixedWalls
    {
        type            zeroGradient;
    }
    frontAndBack
    {
        type            empty;
    }
}


// ************************************************************************* //
