/*--------------------------------*- C++ -*----------------------------------*\
  =========                 |
  \\      /  F ield         | OpenFOAM: The Open Source CFD Toolbox
   \\    /   O peration     | Website:  https://openfoam.org
    \\  /    A nd           | Version:  11
     \\/     M anipulation  |
\*---------------------------------------------------------------------------*/
FoamFile
{
    format      ascii;
    class       volScalarField;
    location    "18.625";
    object      C;
}
// * * * * * * * * * * * * * * * * * * * * * * * * * * * * * * * * * * * * * //

dimensions      [0 0 0 0 0 0 0];

internalField   nonuniform List<scalar> 
400
(
0.0254057
0.0332553
0.0425343
0.0448195
0.0482953
0.0488483
0.0487133
0.0481997
0.0474963
0.0467076
0.0458987
0.0451155
0.0443999
0.0438122
0.0433779
0.0431424
0.0431168
0.0433398
0.0438389
0.0446202
0.0360563
0.0394909
0.0448142
0.0482261
0.0506122
0.05038
0.0489627
0.0466728
0.0439568
0.0412074
0.0387501
0.0368322
0.0356282
0.0351865
0.0354749
0.036392
0.037691
0.0390809
0.0402404
0.0409656
0.039456
0.0432727
0.0485201
0.0527141
0.054207
0.0527034
0.0491111
0.044029
0.0383355
0.0328849
0.0284326
0.0255436
0.0245401
0.0253831
0.0277368
0.0310517
0.0346392
0.0377988
0.0399416
0.0408092
0.0410087
0.0462883
0.0531827
0.0584303
0.0598162
0.0573575
0.0515597
0.0432521
0.0338816
0.02514
0.0185758
0.0152235
0.0153902
0.0184959
0.0234629
0.0290312
0.0341481
0.0381635
0.0407128
0.041645
0.0418661
0.0491062
0.0585967
0.0659216
0.0687255
0.0667455
0.060016
0.0495175
0.0374068
0.0263795
0.0187991
0.0160289
0.0180272
0.0233625
0.0298837
0.0354819
0.0391261
0.0411736
0.0423294
0.0425443
0.0423312
0.0516269
0.0644422
0.0753184
0.0817867
0.0831019
0.078794
0.0698112
0.0586297
0.0482924
0.0413627
0.0392703
0.0417606
0.0469989
0.0519417
0.0536651
0.0514543
0.0476295
0.0449961
0.0435359
0.0425092
0.0536035
0.0701429
0.0859654
0.0985815
0.10695
0.110225
0.108965
0.104889
0.0997775
0.0950268
0.0917823
0.0904152
0.090426
0.0889803
0.0826033
0.0705967
0.0573441
0.0486134
0.0445757
0.0424347
0.0547219
0.0749009
0.0964249
0.116999
0.13575
0.151845
0.165299
0.175936
0.182111
0.181572
0.173952
0.1615
0.148959
0.135523
0.117707
0.0939308
0.0693639
0.0529568
0.045642
0.0421776
0.0548027
0.0778689
0.104789
0.133573
0.163919
0.19556
0.228442
0.260438
0.285003
0.292531
0.277285
0.245759
0.213646
0.183636
0.152804
0.117771
0.0822667
0.0576961
0.0467035
0.0418259
0.0537096
0.0783921
0.109301
0.144585
0.184574
0.229748
0.280681
0.335179
0.383587
0.404558
0.378271
0.325178
0.271722
0.224574
0.181918
0.138479
0.0945627
0.0624995
0.0477352
0.0414752
0.0515479
0.0759307
0.108536
0.147105
0.19209
0.244343
0.304745
0.371168
0.432797
0.467502
0.438277
0.374761
0.308318
0.250032
0.200307
0.153169
0.104925
0.0670221
0.0487067
0.0412139
0.0486547
0.0705626
0.102064
0.140008
0.184196
0.235207
0.293563
0.356837
0.414459
0.443947
0.426097
0.374223
0.31175
0.254079
0.205278
0.160095
0.112308
0.0709808
0.0495983
0.0411538
0.0455144
0.0629558
0.0905181
0.124199
0.162559
0.205352
0.252459
0.301554
0.344656
0.366848
0.35899
0.325735
0.28047
0.23557
0.196301
0.158987
0.116076
0.0740336
0.0503735
0.0414472
0.0427672
0.0544498
0.0757112
0.102398
0.131864
0.162889
0.194863
0.226233
0.252699
0.267278
0.26595
0.250087
0.22564
0.199657
0.175695
0.150635
0.115882
0.0756957
0.0509939
0.0422715
0.0410829
0.0467695
0.0603443
0.0785134
0.0981408
0.117362
0.135355
0.151518
0.164567
0.172569
0.174468
0.170867
0.163835
0.156083
0.148271
0.136704
0.111835
0.0757178
0.0514181
0.0438275
0.0409676
0.0416221
0.0476374
0.0571739
0.0676336
0.0771815
0.0850526
0.0912657
0.0961142
0.0999553
0.103207
0.10648
0.110397
0.115387
0.119909
0.119631
0.104377
0.0740021
0.0516039
0.0457709
0.0425095
0.0400781
0.0403308
0.0427791
0.0460096
0.0488493
0.0508242
0.0521729
0.0535624
0.0558623
0.0598327
0.0660309
0.0746429
0.0852889
0.0956715
0.101805
0.0939816
0.0704023
0.0515007
0.0452809
0.0441307
0.0415597
0.0393185
0.0379024
0.0370749
0.036512
0.036133
0.0361779
0.037112
0.0394878
0.0437839
0.0502072
0.058593
0.0684636
0.0779831
0.0846787
0.080936
0.0648598
0.0510842
0.0433353
0.0454059
0.0447317
0.0433627
0.0419588
0.0408288
0.0401211
0.0399494
0.0404391
0.0417288
0.0439282
0.0470924
0.0511931
0.0559072
0.0609302
0.0651624
0.0680116
0.0654557
0.0574322
0.0503391
0.0406956
0.0416698
0.042648
0.0433677
0.0438342
0.0441653
0.044473
0.0448277
0.0452665
0.045799
0.0464177
0.0471004
0.0478183
0.0485232
0.0491751
0.0497008
0.0501118
0.050084
0.0497612
0.0494356
)
;

boundaryField
{
    movingWall
    {
        type            zeroGradient;
    }
    fixedWalls
    {
        type            zeroGradient;
    }
    frontAndBack
    {
        type            empty;
    }
}


// ************************************************************************* //
