/*--------------------------------*- C++ -*----------------------------------*\
  =========                 |
  \\      /  F ield         | OpenFOAM: The Open Source CFD Toolbox
   \\    /   O peration     | Website:  https://openfoam.org
    \\  /    A nd           | Version:  11
     \\/     M anipulation  |
\*---------------------------------------------------------------------------*/
FoamFile
{
    format      ascii;
    class       volScalarField;
    location    "13.875";
    object      C;
}
// * * * * * * * * * * * * * * * * * * * * * * * * * * * * * * * * * * * * * //

dimensions      [0 0 0 0 0 0 0];

internalField   nonuniform List<scalar> 
400
(
0.0112036
0.0222032
0.0556402
0.0536226
0.0406236
0.0350088
0.0314581
0.0292895
0.0282722
0.0281634
0.0287851
0.0299696
0.0315512
0.0333497
0.0351027
0.0365381
0.0374424
0.0376101
0.0370031
0.0357897
0.0270897
0.0446284
0.0543727
0.0425433
0.0302502
0.0237687
0.0204675
0.020668
0.0240696
0.0299864
0.0374856
0.0455023
0.0528972
0.0586047
0.0618708
0.0621102
0.0594397
0.0545369
0.0488979
0.0444024
0.0387617
0.0527887
0.0464348
0.0295444
0.0177645
0.0123846
0.0131429
0.0204389
0.0333157
0.0500549
0.068357
0.0855853
0.0991266
0.106944
0.107629
0.101005
0.0884345
0.0728342
0.0585507
0.0501894
0.0452903
0.0531563
0.0369611
0.017589
0.00605382
0.00270238
0.00888387
0.025326
0.0508091
0.0822384
0.114845
0.143151
0.162261
0.169136
0.162989
0.145402
0.11968
0.0906121
0.0648631
0.0501456
0.0488296
0.0514127
0.0289335
0.00754915
-0.00462095
-0.00648118
0.00522391
0.032498
0.0738905
0.123627
0.172426
0.210278
0.230005
0.229422
0.211455
0.18173
0.145309
0.106107
0.0705291
0.0499123
0.0509555
0.0503719
0.0237754
0.000286452
-0.0132019
-0.0139326
0.00399091
0.0444131
0.104914
0.174977
0.238233
0.278742
0.288271
0.26989
0.23489
0.194905
0.155264
0.114375
0.0739172
0.0493363
0.0524858
0.0511771
0.0224121
-0.00255241
-0.0165217
-0.0143668
0.013048
0.0713729
0.155682
0.247434
0.319436
0.348989
0.331217
0.282876
0.226929
0.180172
0.14602
0.113588
0.0746186
0.0485269
0.0536392
0.0542347
0.02559
0.00101796
-0.0105864
-0.00131197
0.0412485
0.123991
0.237526
0.351048
0.421569
0.419958
0.354836
0.268481
0.192652
0.143534
0.120686
0.104198
0.0726932
0.0475245
0.0544145
0.0593818
0.0336705
0.0123041
0.00695106
0.0278801
0.0895304
0.198984
0.341695
0.47269
0.528952
0.474575
0.349363
0.228583
0.142032
0.0965054
0.0867959
0.0888377
0.0686027
0.0463501
0.0544525
0.0662547
0.0463294
0.031094
0.0352229
0.0695783
0.147224
0.272256
0.426417
0.55993
0.594067
0.476303
0.303733
0.167317
0.085119
0.0499078
0.0522603
0.0707268
0.0631238
0.0450787
0.0536652
0.0732477
0.0626104
0.0555624
0.0701242
0.115797
0.200066
0.319778
0.451013
0.543495
0.538572
0.395993
0.221239
0.0965803
0.0318146
0.0111822
0.0229666
0.0527699
0.0569056
0.0437462
0.0518409
0.07855
0.0801615
0.082608
0.106047
0.157805
0.237819
0.334696
0.421161
0.454993
0.398094
0.266388
0.129536
0.0353483
-0.00832901
-0.0157628
0.00196673
0.0371037
0.0505833
0.0424041
0.0486983
0.0803357
0.0953576
0.108087
0.137497
0.189012
0.256655
0.324115
0.366503
0.356931
0.283406
0.172374
0.0679082
-0.000700513
-0.0293993
-0.0298661
-0.0105378
0.0251175
0.0445873
0.0410703
0.0440982
0.0771981
0.103952
0.126935
0.159725
0.206046
0.257791
0.298831
0.310773
0.280735
0.211132
0.122918
0.0432018
-0.00975724
-0.0325821
-0.0326449
-0.0158151
0.0171465
0.0393336
0.0397612
0.0382871
0.0685716
0.102217
0.133472
0.167926
0.207005
0.243579
0.265474
0.261554
0.227483
0.169417
0.101574
0.0401621
-0.00317849
-0.0248019
-0.0278475
-0.0154398
0.0129223
0.0351634
0.0384673
0.0328241
0.0561536
0.089388
0.123708
0.157538
0.189387
0.214
0.224124
0.21444
0.184568
0.139894
0.089413
0.0425911
0.00702093
-0.0136007
-0.019352
-0.0111277
0.0119065
0.0321447
0.0372142
0.0316315
0.044152
0.0690444
0.0984837
0.127125
0.151257
0.167044
0.170926
0.161174
0.138804
0.107509
0.072613
0.0395614
0.0130188
-0.00383635
-0.00958271
-0.00396497
0.0136274
0.0302728
0.036032
0.0360819
0.0372506
0.049193
0.066636
0.0843685
0.0985646
0.106607
0.106997
0.0996145
0.0856112
0.0672109
0.0471386
0.0283311
0.0133857
0.00401546
0.00146063
0.00590721
0.0178243
0.0295445
0.0349571
0.0403158
0.0365088
0.0380331
0.0425531
0.0477482
0.0516706
0.0531761
0.0518882
0.0480308
0.0422439
0.0354208
0.0285121
0.0224341
0.018018
0.0156506
0.0158889
0.0185497
0.0241973
0.0300299
0.0340545
0.0379741
0.0362358
0.0347741
0.033793
0.0331276
0.0325555
0.0319414
0.0312547
0.0305302
0.0298316
0.0292258
0.0287702
0.0285018
0.0284516
0.0286189
0.0290155
0.0295952
0.0304856
0.0314328
0.0334782
)
;

boundaryField
{
    movingWall
    {
        type            zeroGradient;
    }
    fixedWalls
    {
        type            zeroGradient;
    }
    frontAndBack
    {
        type            empty;
    }
}


// ************************************************************************* //
