/*--------------------------------*- C++ -*----------------------------------*\
  =========                 |
  \\      /  F ield         | OpenFOAM: The Open Source CFD Toolbox
   \\    /   O peration     | Website:  https://openfoam.org
    \\  /    A nd           | Version:  11
     \\/     M anipulation  |
\*---------------------------------------------------------------------------*/
FoamFile
{
    format      ascii;
    class       volScalarField;
    location    "17.5";
    object      C;
}
// * * * * * * * * * * * * * * * * * * * * * * * * * * * * * * * * * * * * * //

dimensions      [0 0 0 0 0 0 0];

internalField   nonuniform List<scalar> 
400
(
0.0226004
0.0318112
0.0416494
0.0397557
0.0449717
0.0479606
0.0494925
0.0501456
0.0501676
0.0497496
0.0490309
0.0481189
0.0471077
0.0461086
0.0452066
0.0444918
0.0440317
0.0439105
0.0441898
0.0448679
0.0352255
0.0382977
0.0417169
0.0454941
0.0523834
0.0566996
0.0588678
0.0589839
0.05736
0.0544695
0.0508465
0.0470033
0.0434255
0.0405248
0.0385167
0.0375276
0.0374991
0.0382309
0.0393652
0.0404684
0.0389592
0.0408674
0.04594
0.0553659
0.0651554
0.0716355
0.0745305
0.0736686
0.0695525
0.0630821
0.0553213
0.0474166
0.0404602
0.0352639
0.032236
0.0314429
0.0325527
0.0348423
0.0372651
0.0387527
0.0401043
0.0430594
0.052884
0.0680205
0.0822372
0.0925556
0.0978416
0.0974045
0.0915645
0.0815741
0.0692118
0.0565079
0.045252
0.0366209
0.0312269
0.0291919
0.0301551
0.0332232
0.03684
0.0390873
0.0404506
0.0453221
0.0605869
0.0818576
0.102239
0.118701
0.129141
0.132136
0.127684
0.117124
0.102499
0.0860953
0.0698629
0.0554632
0.0441921
0.0367383
0.0334002
0.0340575
0.0372144
0.0396407
0.0405157
0.0470932
0.067297
0.0947533
0.12238
0.146963
0.165848
0.177267
0.180767
0.176579
0.165056
0.147045
0.124246
0.0999881
0.0775231
0.0587912
0.0452604
0.0387157
0.0387835
0.0404182
0.0404578
0.0478901
0.0716594
0.104313
0.138728
0.171855
0.2015
0.226539
0.245982
0.257074
0.255332
0.237648
0.205641
0.166825
0.128507
0.0940978
0.0656707
0.0473869
0.0415521
0.0413349
0.0403719
0.0474626
0.0728155
0.108526
0.147393
0.186928
0.226551
0.267209
0.3081
0.342336
0.35715
0.341798
0.297988
0.241776
0.186299
0.135906
0.0916452
0.0592775
0.0453717
0.0423565
0.040339
0.0459158
0.0705265
0.106372
0.145939
0.187265
0.231895
0.284088
0.345248
0.40592
0.44318
0.433033
0.377486
0.306195
0.237324
0.175264
0.118577
0.0728796
0.0499461
0.0434467
0.0404902
0.0435048
0.0651642
0.0981646
0.134345
0.171821
0.213592
0.266992
0.337659
0.418915
0.480176
0.477693
0.418769
0.343068
0.270217
0.204382
0.141866
0.0864806
0.0549198
0.04457
0.0408289
0.0408673
0.0575477
0.0851018
0.114691
0.143794
0.175698
0.219004
0.281904
0.361155
0.435009
0.446179
0.403993
0.342005
0.27853
0.218524
0.15805
0.0985056
0.0599216
0.0456914
0.0413922
0.0386467
0.0490727
0.0693505
0.0905955
0.10928
0.128041
0.15503
0.198933
0.259356
0.317979
0.345174
0.336201
0.303761
0.261894
0.216722
0.165328
0.107682
0.064617
0.0467827
0.0422324
0.0373917
0.0413384
0.0535239
0.0661982
0.075084
0.0816857
0.0927073
0.116067
0.153988
0.196624
0.229724
0.244633
0.241694
0.226084
0.201028
0.163837
0.113158
0.0686249
0.0478048
0.0433772
0.0374731
0.0358801
0.0402875
0.0452661
0.0466488
0.0448509
0.0447257
0.0527298
0.0725111
0.101252
0.132207
0.158315
0.175117
0.18138
0.176083
0.155036
0.114443
0.071401
0.0487166
0.0447851
0.038987
0.0337631
0.0318771
0.0307315
0.0272924
0.0213673
0.0160039
0.0158113
0.0243804
0.042265
0.0668841
0.0940444
0.11916
0.138448
0.147763
0.141042
0.111662
0.0725866
0.04948
0.0462913
0.041576
0.0351143
0.0294917
0.0243998
0.0184977
0.0116388
0.00550231
0.00286423
0.00630144
0.0171388
0.0348303
0.0574729
0.0820807
0.105089
0.12144
0.124415
0.1053
0.0720184
0.0500421
0.0470538
0.044428
0.0390642
0.0327981
0.0265158
0.0203027
0.0144247
0.00979786
0.00780586
0.00983988
0.0168266
0.0289457
0.0453697
0.0646401
0.0843726
0.100395
0.107205
0.0958075
0.0694935
0.0503393
0.0449436
0.0458663
0.0435179
0.0394127
0.0347906
0.0304043
0.0268016
0.0245506
0.024232
0.0263847
0.0313498
0.0392385
0.049659
0.0617446
0.0742674
0.0847342
0.0901613
0.0833104
0.0648643
0.0503298
0.0424839
0.0461699
0.0467841
0.046074
0.0448299
0.0436509
0.0429535
0.0430138
0.0440013
0.0460038
0.0490164
0.0529547
0.0576368
0.0625902
0.0674095
0.070811
0.0722097
0.0676544
0.058034
0.0499716
0.0407134
0.0419859
0.043319
0.0444382
0.0453083
0.0460106
0.046639
0.0472573
0.0478938
0.0485506
0.0492141
0.0498585
0.0504584
0.0509675
0.0513581
0.0515707
0.0516329
0.0511968
0.0504771
0.0493624
)
;

boundaryField
{
    movingWall
    {
        type            zeroGradient;
    }
    fixedWalls
    {
        type            zeroGradient;
    }
    frontAndBack
    {
        type            empty;
    }
}


// ************************************************************************* //
