/*--------------------------------*- C++ -*----------------------------------*\
  =========                 |
  \\      /  F ield         | OpenFOAM: The Open Source CFD Toolbox
   \\    /   O peration     | Website:  https://openfoam.org
    \\  /    A nd           | Version:  11
     \\/     M anipulation  |
\*---------------------------------------------------------------------------*/
FoamFile
{
    format      ascii;
    class       volScalarField;
    location    "12.875";
    object      C;
}
// * * * * * * * * * * * * * * * * * * * * * * * * * * * * * * * * * * * * * //

dimensions      [0 0 0 0 0 0 0];

internalField   nonuniform List<scalar> 
400
(
0.00834472
0.0177536
0.041092
0.0490188
0.0387597
0.0354427
0.0331763
0.0319624
0.031745
0.032471
0.0340992
0.0365443
0.0396496
0.0430817
0.0464954
0.0493894
0.0512732
0.0514919
0.0495062
0.0452039
0.0211377
0.0335345
0.0457547
0.0407451
0.0309772
0.0261372
0.0230515
0.0228419
0.0258344
0.0320482
0.0410762
0.0521021
0.0639061
0.0750662
0.0839314
0.0888114
0.0887521
0.0839178
0.076365
0.0696469
0.0285621
0.0422866
0.0425468
0.0304263
0.0201579
0.0135584
0.010093
0.0114006
0.0182612
0.0310408
0.0493047
0.0714804
0.0947564
0.115385
0.12915
0.13252
0.124226
0.106662
0.086691
0.0738292
0.0334585
0.0448042
0.0362787
0.0208482
0.00958316
0.00143384
-0.00267055
-0.000515293
0.0100157
0.0305282
0.0608095
0.0978386
0.135793
0.167238
0.184862
0.183768
0.163398
0.128895
0.0919828
0.0687368
0.0364375
0.0446752
0.030351
0.0133193
0.00120349
-0.00806894
-0.0129057
-0.0100534
0.00476273
0.0350693
0.0806307
0.135432
0.188454
0.227229
0.242705
0.232197
0.198503
0.148668
0.0965452
0.0645009
0.0382467
0.0441458
0.0260621
0.00809131
-0.00467237
-0.0150637
-0.0213542
-0.0186907
0.000695029
0.0435923
0.109204
0.185036
0.25049
0.286968
0.288782
0.262433
0.21729
0.159111
0.0976817
0.0606702
0.0394636
0.044273
0.0236849
0.00477397
-0.00890755
-0.0211752
-0.0303735
-0.0290822
-0.00386871
0.0570991
0.15049
0.250547
0.320713
0.338768
0.312346
0.264673
0.212942
0.157079
0.0946727
0.0571048
0.0403074
0.0455782
0.0233052
0.00308087
-0.0119283
-0.0263145
-0.0380919
-0.0362867
-0.00028759
0.0873937
0.217014
0.339924
0.396957
0.375157
0.308109
0.237694
0.185508
0.142245
0.0876711
0.0537202
0.0408841
0.0482594
0.0252497
0.00349435
-0.0124958
-0.0267476
-0.0357658
-0.0250696
0.0316535
0.15578
0.32591
0.458501
0.470499
0.38788
0.276523
0.188439
0.141717
0.117576
0.0775
0.0504498
0.0409173
0.0525754
0.0301211
0.00728358
-0.0080386
-0.0174347
-0.0144106
0.0183387
0.110211
0.281778
0.484276
0.58498
0.518582
0.368561
0.222725
0.128078
0.0913716
0.0875769
0.0655284
0.0473439
0.0403722
0.057765
0.0390007
0.0163891
0.00379097
0.00388716
0.0259773
0.0865417
0.207733
0.398853
0.615278
0.64543
0.506929
0.314135
0.156564
0.0684287
0.0439603
0.0569687
0.0529839
0.0444156
0.0389844
0.0627293
0.0519808
0.0323543
0.024148
0.0354448
0.0761785
0.156999
0.284115
0.446081
0.577513
0.565912
0.420348
0.23445
0.0918611
0.0195849
0.00644083
0.029717
0.0410499
0.041706
0.0362573
0.0658775
0.0673935
0.0551258
0.0526847
0.0731348
0.125006
0.210542
0.320311
0.428768
0.481406
0.434332
0.305042
0.155422
0.0430334
-0.0119707
-0.018018
0.008698
0.0305883
0.039222
0.0316055
0.0652312
0.081308
0.0814716
0.0867321
0.112482
0.165332
0.241099
0.322662
0.382861
0.389546
0.329521
0.221802
0.106138
0.0193143
-0.0243238
-0.0296185
-0.00510902
0.0223369
0.0369798
0.0245527
0.0586914
0.0878684
0.103775
0.119284
0.147743
0.193995
0.251815
0.304907
0.332668
0.31911
0.262179
0.176457
0.086827
0.0169208
-0.0219671
-0.03084
-0.0120538
0.0167228
0.0349932
0.0164155
0.046146
0.0820381
0.111601
0.137939
0.168409
0.205577
0.244344
0.273728
0.281696
0.261191
0.213474
0.147788
0.0790431
0.022283
-0.013287
-0.0257858
-0.0133283
0.0137256
0.0332805
0.0136146
0.0314542
0.0632083
0.0970347
0.128804
0.159024
0.187397
0.210546
0.22301
0.219673
0.198396
0.161286
0.113952
0.0646643
0.0224405
-0.00616363
-0.0183774
-0.0102369
0.013239
0.0318608
0.0251524
0.0236231
0.0400424
0.0644585
0.0899188
0.112841
0.130951
0.142058
0.144273
0.136511
0.119236
0.0943799
0.0655797
0.0370288
0.012901
-0.00350979
-0.0103544
-0.00339515
0.0151838
0.030742
0.0379993
0.0228015
0.0231721
0.0302813
0.0397614
0.0484823
0.0544942
0.0567694
0.0550127
0.049523
0.0411413
0.0309904
0.0204285
0.0110059
0.00384797
0.000400846
0.000823091
0.00804146
0.0197192
0.0299747
0.0514037
0.0464534
0.0411636
0.0369222
0.033987
0.031948
0.0303264
0.0288216
0.027324
0.0258501
0.0244823
0.0233225
0.0224527
0.0219551
0.0218624
0.0221907
0.0228654
0.0242507
0.0259881
0.0296375
)
;

boundaryField
{
    movingWall
    {
        type            zeroGradient;
    }
    fixedWalls
    {
        type            zeroGradient;
    }
    frontAndBack
    {
        type            empty;
    }
}


// ************************************************************************* //
