/*--------------------------------*- C++ -*----------------------------------*\
  =========                 |
  \\      /  F ield         | OpenFOAM: The Open Source CFD Toolbox
   \\    /   O peration     | Website:  https://openfoam.org
    \\  /    A nd           | Version:  11
     \\/     M anipulation  |
\*---------------------------------------------------------------------------*/
FoamFile
{
    format      ascii;
    class       volScalarField;
    location    "10.5";
    object      C;
}
// * * * * * * * * * * * * * * * * * * * * * * * * * * * * * * * * * * * * * //

dimensions      [0 0 0 0 0 0 0];

internalField   nonuniform List<scalar> 
400
(
8.46753e-96
3.25674e-90
1.12301e-84
3.41787e-79
8.99442e-74
1.98992e-68
3.55343e-63
4.80195e-58
4.36543e-53
2.00251e-48
2.00251e-48
4.33873e-53
4.73721e-58
3.47524e-63
1.92705e-68
8.61524e-74
3.23464e-79
1.04905e-84
2.99996e-90
7.68452e-96
3.25674e-90
1.26339e-84
4.3944e-79
1.34916e-73
3.58184e-68
7.9952e-63
1.44058e-57
1.96443e-52
1.80224e-47
8.34379e-43
8.34379e-43
1.7935e-47
1.94311e-52
1.41472e-57
7.78701e-63
3.45628e-68
1.28856e-73
4.15029e-79
1.17889e-84
2.99996e-90
1.12301e-84
4.3944e-79
1.5419e-73
4.77579e-68
1.27923e-62
2.88116e-57
5.23847e-52
7.20893e-47
6.67496e-42
3.11918e-37
3.11918e-37
6.65024e-42
7.14786e-47
5.16392e-52
2.82089e-57
1.24283e-62
4.60012e-68
1.47122e-73
4.15029e-79
1.04905e-84
3.41787e-79
1.34916e-73
4.77579e-68
1.49244e-62
4.03362e-57
9.16732e-52
1.68208e-46
2.33623e-41
2.1834e-36
1.02992e-31
1.02992e-31
2.17752e-36
2.32141e-41
1.66378e-46
9.01833e-52
3.94327e-57
1.44877e-62
4.60012e-68
1.28856e-73
3.23464e-79
8.99442e-74
3.58184e-68
1.27923e-62
4.03362e-57
1.10008e-51
2.52312e-46
4.67245e-41
6.55018e-36
6.17944e-31
2.94263e-26
2.94263e-26
6.16813e-31
6.52077e-36
4.63542e-41
2.49262e-46
1.08146e-51
3.94327e-57
1.24283e-62
3.45628e-68
8.61524e-74
1.98992e-68
7.9952e-63
2.88116e-57
9.16732e-52
2.52312e-46
5.84056e-41
1.0917e-35
1.54486e-30
1.4713e-25
7.07363e-21
7.07363e-21
1.46965e-25
1.54033e-30
1.08581e-35
5.7912e-41
2.49262e-46
9.01833e-52
2.82089e-57
7.78701e-63
1.92705e-68
3.55343e-63
1.44058e-57
5.23847e-52
1.68208e-46
4.67245e-41
1.0917e-35
2.05981e-30
2.94259e-25
2.82942e-20
1.37352e-15
1.37352e-15
2.82781e-20
2.93765e-25
2.05302e-30
1.08581e-35
4.63542e-41
1.66378e-46
5.16392e-52
1.41472e-57
3.47524e-63
4.80195e-58
1.96443e-52
7.20893e-47
2.33623e-41
6.55018e-36
1.54486e-30
2.94259e-25
4.24413e-20
4.12053e-15
2.01989e-10
2.01989e-10
4.11973e-15
4.2409e-20
2.93765e-25
1.54033e-30
6.52077e-36
2.32141e-41
7.14786e-47
1.94311e-52
4.73721e-58
4.36543e-53
1.80224e-47
6.67496e-42
2.1834e-36
6.17944e-31
1.4713e-25
2.82942e-20
4.12053e-15
4.03975e-10
1.9999e-05
1.9999e-05
4.03975e-10
4.11973e-15
2.82781e-20
1.46965e-25
6.16813e-31
2.17752e-36
6.65024e-42
1.7935e-47
4.33873e-53
2.00251e-48
8.34379e-43
3.11918e-37
1.02992e-31
2.94263e-26
7.07363e-21
1.37352e-15
2.01989e-10
1.9999e-05
0.99996
0.99996
1.9999e-05
2.01989e-10
1.37352e-15
7.07363e-21
2.94263e-26
1.02992e-31
3.11918e-37
8.34379e-43
2.00251e-48
2.00251e-48
8.34379e-43
3.11918e-37
1.02992e-31
2.94263e-26
7.07363e-21
1.37352e-15
2.01989e-10
1.9999e-05
0.99996
0.99996
1.9999e-05
2.01989e-10
1.37352e-15
7.07363e-21
2.94263e-26
1.02992e-31
3.11918e-37
8.34379e-43
2.00251e-48
4.33873e-53
1.7935e-47
6.65024e-42
2.17752e-36
6.16813e-31
1.46965e-25
2.82781e-20
4.11973e-15
4.03975e-10
1.9999e-05
1.9999e-05
4.03975e-10
4.12053e-15
2.82942e-20
1.4713e-25
6.17944e-31
2.1834e-36
6.67496e-42
1.80224e-47
4.36543e-53
4.73721e-58
1.94311e-52
7.14786e-47
2.32141e-41
6.52077e-36
1.54033e-30
2.93765e-25
4.2409e-20
4.11973e-15
2.01989e-10
2.01989e-10
4.12053e-15
4.24413e-20
2.94259e-25
1.54486e-30
6.55018e-36
2.33623e-41
7.20893e-47
1.96443e-52
4.80195e-58
3.47524e-63
1.41472e-57
5.16392e-52
1.66378e-46
4.63542e-41
1.08581e-35
2.05302e-30
2.93765e-25
2.82781e-20
1.37352e-15
1.37352e-15
2.82942e-20
2.94259e-25
2.05981e-30
1.0917e-35
4.67245e-41
1.68208e-46
5.23847e-52
1.44058e-57
3.55343e-63
1.92705e-68
7.78701e-63
2.82089e-57
9.01833e-52
2.49262e-46
5.7912e-41
1.08581e-35
1.54033e-30
1.46965e-25
7.07363e-21
7.07363e-21
1.4713e-25
1.54486e-30
1.0917e-35
5.84056e-41
2.52312e-46
9.16732e-52
2.88116e-57
7.9952e-63
1.98992e-68
8.61524e-74
3.45628e-68
1.24283e-62
3.94327e-57
1.08146e-51
2.49262e-46
4.63542e-41
6.52077e-36
6.16813e-31
2.94263e-26
2.94263e-26
6.17944e-31
6.55018e-36
4.67245e-41
2.52312e-46
1.10008e-51
4.03362e-57
1.27923e-62
3.58184e-68
8.99442e-74
3.23464e-79
1.28856e-73
4.60012e-68
1.44877e-62
3.94327e-57
9.01833e-52
1.66378e-46
2.32141e-41
2.17752e-36
1.02992e-31
1.02992e-31
2.1834e-36
2.33623e-41
1.68208e-46
9.16732e-52
4.03362e-57
1.49244e-62
4.77579e-68
1.34916e-73
3.41787e-79
1.04905e-84
4.15029e-79
1.47122e-73
4.60012e-68
1.24283e-62
2.82089e-57
5.16392e-52
7.14786e-47
6.65024e-42
3.11918e-37
3.11918e-37
6.67496e-42
7.20893e-47
5.23847e-52
2.88116e-57
1.27923e-62
4.77579e-68
1.5419e-73
4.3944e-79
1.12301e-84
2.99996e-90
1.17889e-84
4.15029e-79
1.28856e-73
3.45628e-68
7.78701e-63
1.41472e-57
1.94311e-52
1.7935e-47
8.34379e-43
8.34379e-43
1.80224e-47
1.96443e-52
1.44058e-57
7.9952e-63
3.58184e-68
1.34916e-73
4.3944e-79
1.26339e-84
3.25674e-90
7.68452e-96
2.99996e-90
1.04905e-84
3.23464e-79
8.61524e-74
1.92705e-68
3.47524e-63
4.73721e-58
4.33873e-53
2.00251e-48
2.00251e-48
4.36543e-53
4.80195e-58
3.55343e-63
1.98992e-68
8.99442e-74
3.41787e-79
1.12301e-84
3.25674e-90
8.46753e-96
)
;

boundaryField
{
    movingWall
    {
        type            zeroGradient;
    }
    fixedWalls
    {
        type            zeroGradient;
    }
    frontAndBack
    {
        type            empty;
    }
}


// ************************************************************************* //
