/*--------------------------------*- C++ -*----------------------------------*\
  =========                 |
  \\      /  F ield         | OpenFOAM: The Open Source CFD Toolbox
   \\    /   O peration     | Website:  https://openfoam.org
    \\  /    A nd           | Version:  11
     \\/     M anipulation  |
\*---------------------------------------------------------------------------*/
FoamFile
{
    format      ascii;
    class       volScalarField;
    location    "12.375";
    object      C;
}
// * * * * * * * * * * * * * * * * * * * * * * * * * * * * * * * * * * * * * //

dimensions      [0 0 0 0 0 0 0];

internalField   nonuniform List<scalar> 
400
(
0.00661094
0.0203755
0.0132872
0.01765
0.0462967
0.057428
0.0598926
0.058979
0.0567341
0.054063
0.0513921
0.0489037
0.0466855
0.0448357
0.0433729
0.04235
0.0417744
0.0417407
0.0423305
0.0435563
0.0252807
0.0157541
0.0195785
0.043445
0.0678074
0.074086
0.0710886
0.0636371
0.0547694
0.0463185
0.0392375
0.0338613
0.0301845
0.0279294
0.0268469
0.0268452
0.0278212
0.0297312
0.0323054
0.0348893
0.0236719
0.0174156
0.0402276
0.0750793
0.0942343
0.093112
0.0807655
0.0634638
0.0459881
0.0312846
0.0207009
0.0143004
0.0112632
0.010384
0.0109132
0.0126511
0.0158121
0.0204951
0.0258858
0.0299121
0.0211143
0.0251149
0.065805
0.107424
0.123842
0.11702
0.0960284
0.0683839
0.0407216
0.0181163
0.00327602
-0.00381573
-0.00533273
-0.00421717
-0.00233968
0.000155235
0.00455194
0.0120349
0.0216379
0.0292192
0.019578
0.0339229
0.0899354
0.139263
0.158568
0.151541
0.125795
0.0887628
0.0489979
0.0149555
-0.00775003
-0.0180663
-0.0190763
-0.015851
-0.0124898
-0.00986492
-0.00547574
0.00371836
0.0174511
0.0292543
0.0186114
0.0400098
0.108522
0.168194
0.197287
0.198594
0.176639
0.136368
0.0858459
0.0356692
-0.00409123
-0.0270336
-0.0326096
-0.0276236
-0.0211469
-0.0170039
-0.0125064
-0.00268968
0.0143649
0.0303369
0.0178375
0.0415876
0.118503
0.189408
0.23339
0.251966
0.246115
0.215335
0.161666
0.0929559
0.0244248
-0.0248202
-0.043088
-0.0377376
-0.0271546
-0.0201035
-0.0150534
-0.00601574
0.0128458
0.0322298
0.0173186
0.0382497
0.117911
0.197298
0.256256
0.296369
0.317304
0.313433
0.276265
0.201935
0.10395
0.0174186
-0.0262052
-0.0278763
-0.0189408
-0.01285
-0.00984633
-0.00457159
0.0135551
0.0348822
0.0173032
0.0310118
0.106607
0.188209
0.256072
0.313123
0.36235
0.400147
0.411257
0.371136
0.268948
0.141136
0.0542367
0.0276499
0.0197868
0.0138291
0.00729938
0.003326
0.017127
0.0382471
0.0182958
0.0213743
0.0866471
0.162754
0.229538
0.290687
0.354708
0.430086
0.514378
0.57122
0.521592
0.347154
0.208071
0.13709
0.0957331
0.065013
0.0392442
0.0189982
0.0239754
0.04224
0.0202486
0.0122334
0.0613741
0.12512
0.181658
0.232855
0.289997
0.373003
0.49895
0.642084
0.689836
0.545167
0.38338
0.272834
0.195854
0.13604
0.0850709
0.0427855
0.0343769
0.0467782
0.0231474
0.00596262
0.0358237
0.0827572
0.123749
0.156635
0.191044
0.250611
0.363752
0.519717
0.613575
0.581248
0.482852
0.379615
0.29021
0.212347
0.139041
0.0735711
0.0481928
0.0517293
0.0269943
0.00399269
0.0149806
0.043821
0.0687972
0.0834497
0.0930749
0.117772
0.186743
0.303578
0.410768
0.462441
0.455019
0.409823
0.346662
0.274526
0.191984
0.108479
0.0648628
0.0569482
0.0317776
0.00672386
0.00243194
0.0147906
0.0266538
0.0290627
0.0228807
0.0215223
0.0482658
0.115379
0.204696
0.288127
0.343695
0.362973
0.348948
0.306537
0.233905
0.143012
0.0830369
0.0622395
0.0373121
0.0135765
-0.000593984
-0.00116159
0.00144706
-0.00147199
-0.0120462
-0.0233793
-0.0205146
0.00968144
0.0679822
0.142758
0.216929
0.274362
0.305465
0.303363
0.256839
0.171897
0.100498
0.0673585
0.0446229
0.0231784
0.00442128
-0.00460754
-0.00814808
-0.0124525
-0.0207064
-0.0307447
-0.0351077
-0.0246971
0.0061654
0.0562653
0.118733
0.183707
0.240155
0.272337
0.257854
0.190134
0.114549
0.0719292
0.0569302
0.0364244
0.0159325
0.00203021
-0.00595845
-0.0114334
-0.0171213
-0.0232783
-0.0272852
-0.0245226
-0.0101286
0.0188727
0.0626833
0.118815
0.179749
0.228287
0.238784
0.193109
0.121889
0.075478
0.0581308
0.0475633
0.0314073
0.0170205
0.00654665
-0.000700868
-0.00599492
-0.00985831
-0.0115556
-0.00904783
0.000527882
0.0201117
0.0513635
0.0935141
0.141858
0.184103
0.202683
0.176052
0.11897
0.0775139
0.0455014
0.0543678
0.0489149
0.0410787
0.0340053
0.0288237
0.0258036
0.0250643
0.0269314
0.0320405
0.0411874
0.055106
0.0740363
0.0965917
0.120504
0.139659
0.149197
0.13466
0.102857
0.0775896
0.0283608
0.0338231
0.0391866
0.0430029
0.045427
0.0471315
0.048684
0.0504249
0.0525394
0.055101
0.0581102
0.0614977
0.065143
0.0688171
0.0722777
0.0751604
0.0774368
0.0778392
0.0776521
0.0758722
)
;

boundaryField
{
    movingWall
    {
        type            zeroGradient;
    }
    fixedWalls
    {
        type            zeroGradient;
    }
    frontAndBack
    {
        type            empty;
    }
}


// ************************************************************************* //
