/*--------------------------------*- C++ -*----------------------------------*\
  =========                 |
  \\      /  F ield         | OpenFOAM: The Open Source CFD Toolbox
   \\    /   O peration     | Website:  https://openfoam.org
    \\  /    A nd           | Version:  11
     \\/     M anipulation  |
\*---------------------------------------------------------------------------*/
FoamFile
{
    format      ascii;
    class       volScalarField;
    location    "19.375";
    object      C;
}
// * * * * * * * * * * * * * * * * * * * * * * * * * * * * * * * * * * * * * //

dimensions      [0 0 0 0 0 0 0];

internalField   nonuniform List<scalar> 
400
(
0.0270408
0.0344965
0.0451423
0.0410845
0.0419677
0.0439192
0.0455873
0.0469839
0.0480524
0.0488003
0.0492501
0.0494273
0.0493548
0.0490563
0.0485934
0.0480134
0.0474036
0.0468449
0.0464237
0.0461725
0.0373397
0.0414743
0.0431946
0.0426788
0.0465752
0.0513134
0.0558342
0.0595881
0.0621608
0.0633782
0.0632558
0.0619258
0.0596248
0.0567292
0.0535529
0.0504392
0.0477852
0.0459285
0.045111
0.0452637
0.0412968
0.0429345
0.043252
0.0473869
0.0557071
0.0650257
0.0739164
0.0810946
0.0856807
0.0872678
0.0857942
0.0815884
0.0753146
0.0678973
0.0602429
0.0532704
0.0477667
0.0442269
0.042708
0.0426565
0.0425975
0.0428978
0.0450374
0.0540482
0.0676784
0.0830018
0.0979725
0.110408
0.11848
0.121078
0.117854
0.109445
0.0972654
0.0832165
0.0692355
0.0571573
0.0482973
0.0431818
0.0414072
0.0416167
0.0429253
0.042621
0.0472209
0.0607317
0.0799726
0.102175
0.124638
0.144123
0.157581
0.162812
0.158837
0.146208
0.126896
0.104031
0.0813555
0.0622877
0.0490161
0.0420605
0.0402476
0.0410127
0.0429615
0.0421764
0.0485789
0.0654882
0.0895678
0.11833
0.148843
0.177284
0.199547
0.2118
0.211116
0.196485
0.169608
0.135433
0.100738
0.0715579
0.0515437
0.0415063
0.0393493
0.0406668
0.0429607
0.0414717
0.0483945
0.0668607
0.0937539
0.127243
0.165129
0.204185
0.239851
0.265855
0.275016
0.262188
0.227813
0.179948
0.13002
0.0874015
0.0575572
0.0422582
0.0388789
0.0405061
0.0430479
0.0405366
0.0465122
0.064279
0.0910718
0.126123
0.169106
0.218931
0.271668
0.318106
0.344168
0.337179
0.295474
0.232983
0.166933
0.10957
0.067693
0.0448017
0.0389741
0.0404982
0.043264
0.0395441
0.0432826
0.0581819
0.0818208
0.114632
0.158834
0.216654
0.286267
0.356447
0.404705
0.406703
0.358465
0.283751
0.204718
0.134866
0.0811552
0.0492161
0.0397102
0.0406262
0.0436502
0.038756
0.0393763
0.0498593
0.0679591
0.0950778
0.135716
0.195379
0.275563
0.366145
0.437207
0.448439
0.398703
0.319706
0.235245
0.158557
0.0959925
0.0551468
0.0410754
0.0408732
0.0441465
0.0384934
0.0357141
0.0409437
0.0523153
0.0716302
0.104699
0.15889
0.237577
0.331957
0.416727
0.438775
0.400902
0.331282
0.252102
0.176209
0.109826
0.0619526
0.0429993
0.0412248
0.0447243
0.0389461
0.0332253
0.0332072
0.0379012
0.0490474
0.0725854
0.116087
0.183173
0.266165
0.341022
0.375549
0.362742
0.315695
0.252268
0.185017
0.120451
0.0688223
0.0453608
0.0416646
0.0453517
0.040173
0.0326211
0.0282091
0.0272791
0.0314135
0.0457216
0.0767233
0.127515
0.192424
0.254234
0.293675
0.301017
0.27891
0.236873
0.183957
0.126301
0.0748854
0.0479902
0.042175
0.0459529
0.0420322
0.0341808
0.0269713
0.0221131
0.0212606
0.0282859
0.0480326
0.0828812
0.129441
0.17764
0.215586
0.234597
0.232002
0.210381
0.173983
0.126927
0.0791801
0.0506072
0.042737
0.0463652
0.044162
0.0376102
0.0297108
0.0229842
0.0193814
0.0216931
0.0330823
0.0551839
0.0863523
0.121406
0.1534
0.175975
0.184892
0.178678
0.157366
0.122352
0.0811152
0.0528403
0.0433443
0.0462873
0.0460009
0.0419518
0.0355239
0.0291636
0.0249721
0.0250173
0.0311988
0.0444843
0.064184
0.0878584
0.111787
0.131989
0.144738
0.1472
0.136981
0.113319
0.0804068
0.0543757
0.0439606
0.0448147
0.0466831
0.0457848
0.0424339
0.0384168
0.0355422
0.0353277
0.0388868
0.0467163
0.0585278
0.0732237
0.0890283
0.103631
0.114569
0.119407
0.115316
0.100788
0.0768527
0.0548545
0.04453
0.0420727
0.0458239
0.0476921
0.0477671
0.0470481
0.0466666
0.0475385
0.0502515
0.0550137
0.061669
0.0697237
0.0783724
0.0864957
0.0926431
0.0956063
0.0934909
0.085391
0.070102
0.0538749
0.0449884
0.0408419
0.0443758
0.0470955
0.049137
0.05076
0.0523152
0.0540999
0.0562868
0.0589078
0.0618723
0.0649951
0.0679915
0.0705438
0.0721468
0.0725895
0.0709215
0.0671881
0.0596733
0.0509806
0.0452537
0.0417176
0.0425321
0.043475
0.0444718
0.0454504
0.0463575
0.0471713
0.047889
0.0485024
0.0490031
0.0493806
0.0496227
0.0497254
0.0496663
0.0494549
0.0490609
0.0485383
0.0476758
0.0467095
0.0452585
)
;

boundaryField
{
    movingWall
    {
        type            zeroGradient;
    }
    fixedWalls
    {
        type            zeroGradient;
    }
    frontAndBack
    {
        type            empty;
    }
}


// ************************************************************************* //
