/*--------------------------------*- C++ -*----------------------------------*\
  =========                 |
  \\      /  F ield         | OpenFOAM: The Open Source CFD Toolbox
   \\    /   O peration     | Website:  https://openfoam.org
    \\  /    A nd           | Version:  11
     \\/     M anipulation  |
\*---------------------------------------------------------------------------*/
FoamFile
{
    format      ascii;
    class       volScalarField;
    location    "15.125";
    object      C;
}
// * * * * * * * * * * * * * * * * * * * * * * * * * * * * * * * * * * * * * //

dimensions      [0 0 0 0 0 0 0];

internalField   nonuniform List<scalar> 
400
(
0.0157497
0.0268232
0.0425984
0.0358881
0.0322626
0.0330542
0.0352256
0.0381255
0.0412537
0.0443251
0.0471549
0.0496048
0.0515384
0.0527472
0.0532496
0.052975
0.0520207
0.0504015
0.0481838
0.0454341
0.0310925
0.0372718
0.0386587
0.0334232
0.0343812
0.0402412
0.0488549
0.0588632
0.068826
0.0775457
0.0841314
0.0879727
0.0887562
0.0867137
0.0821405
0.0756225
0.0682782
0.0614165
0.0564875
0.0543482
0.0370231
0.0388794
0.0345836
0.0327557
0.039256
0.0519333
0.0687187
0.0872735
0.105167
0.120225
0.130559
0.134841
0.13253
0.12413
0.110833
0.0946331
0.0780824
0.0638718
0.0543527
0.0505793
0.0392033
0.0372997
0.0312142
0.032375
0.0432172
0.0618479
0.086474
0.114405
0.1421
0.165489
0.180579
0.184628
0.177015
0.159499
0.135412
0.109119
0.0847089
0.0652012
0.0526076
0.0476945
0.0399771
0.0351445
0.0279568
0.0301865
0.0428771
0.0651392
0.0961133
0.133264
0.171753
0.204807
0.22532
0.228223
0.212632
0.182446
0.145351
0.109876
0.0816136
0.0618048
0.049766
0.0455443
0.0403564
0.0332921
0.0244149
0.0253102
0.0367149
0.0592576
0.0938708
0.139202
0.189849
0.236094
0.265955
0.269492
0.243917
0.196435
0.142363
0.0970841
0.0681501
0.0530552
0.0454359
0.0436005
0.0407213
0.0320488
0.0207911
0.018266
0.025348
0.0444249
0.0792018
0.131333
0.196783
0.263136
0.31066
0.319795
0.282954
0.212922
0.136665
0.0785001
0.0486028
0.0405323
0.0400345
0.0418222
0.0412087
0.0316285
0.0176937
0.0105315
0.0111821
0.0237059
0.0553491
0.112799
0.196014
0.290787
0.366285
0.386707
0.336289
0.23929
0.137572
0.063443
0.0292405
0.0267454
0.0341443
0.0401854
0.0418197
0.0321277
0.0158335
0.00393162
-0.00240464
0.00222087
0.0286263
0.0894592
0.190876
0.319272
0.430949
0.465665
0.397521
0.272996
0.147799
0.0577546
0.0154691
0.014356
0.028421
0.0387075
0.0425011
0.0336515
0.0157502
6.92226e-05
-0.0120994
-0.0145404
0.00618443
0.0675041
0.182272
0.341406
0.488714
0.531896
0.447226
0.304051
0.164325
0.0625025
0.0100839
0.00529571
0.0234065
0.0374094
0.043179
0.0360926
0.0179533
1.56765e-06
-0.0157124
-0.0226808
-0.00642528
0.0520449
0.167149
0.331077
0.497981
0.542347
0.461172
0.321427
0.182108
0.0754792
0.0133123
0.000610569
0.0195102
0.0363142
0.0437874
0.0391872
0.0225426
0.00409932
-0.0125593
-0.0209559
-0.00732725
0.0456136
0.149041
0.292541
0.427909
0.478944
0.429972
0.319388
0.196568
0.0930354
0.0234134
0.00051288
0.0169756
0.0354334
0.0442214
0.0425683
0.0292215
0.0122159
-0.00312574
-0.0103896
0.00204534
0.047572
0.132476
0.245132
0.347782
0.396888
0.376188
0.30205
0.205076
0.110891
0.0371746
0.0044991
0.0160121
0.0347908
0.044291
0.0457021
0.0371737
0.0236014
0.0113002
0.00664899
0.0185495
0.0559047
0.121103
0.20396
0.280329
0.32436
0.322452
0.278185
0.206604
0.125181
0.0514706
0.0112311
0.0168698
0.0344126
0.0436494
0.0478525
0.0450352
0.0367709
0.0288916
0.0274396
0.038847
0.0682694
0.11593
0.174441
0.229749
0.266497
0.274147
0.250186
0.19957
0.132213
0.0631147
0.0192424
0.0193278
0.0343495
0.0415805
0.0482088
0.0510227
0.0492342
0.0469221
0.0490145
0.0599269
0.0823464
0.115675
0.155226
0.193163
0.220609
0.230125
0.217403
0.182292
0.129269
0.0695417
0.0271794
0.0230099
0.0346174
0.0372193
0.0456292
0.0530009
0.0574535
0.0609957
0.06674
0.0773157
0.0939603
0.115982
0.140703
0.163973
0.180999
0.187062
0.178541
0.154072
0.115215
0.0692553
0.0339139
0.027527
0.0352113
0.0358336
0.0420869
0.0504192
0.05834
0.0658418
0.0739855
0.0837528
0.0954373
0.108472
0.121475
0.132544
0.139401
0.139918
0.13214
0.115668
0.0910111
0.062077
0.0385284
0.0323314
0.0360771
0.0388364
0.0389364
0.0438922
0.0501079
0.0566428
0.0631614
0.0695189
0.0755186
0.0808193
0.0849407
0.0873698
0.0875329
0.0850133
0.0795485
0.0715399
0.0611915
0.0498622
0.0403311
0.0366715
0.0371199
0.0468055
0.0460683
0.0454334
0.0453764
0.0458665
0.046628
0.0474034
0.0480282
0.0483955
0.0484541
0.048188
0.0476084
0.0467553
0.0456674
0.0444297
0.0430846
0.04172
0.040444
0.0394004
0.0380491
)
;

boundaryField
{
    movingWall
    {
        type            zeroGradient;
    }
    fixedWalls
    {
        type            zeroGradient;
    }
    frontAndBack
    {
        type            empty;
    }
}


// ************************************************************************* //
