/*--------------------------------*- C++ -*----------------------------------*\
  =========                 |
  \\      /  F ield         | OpenFOAM: The Open Source CFD Toolbox
   \\    /   O peration     | Website:  https://openfoam.org
    \\  /    A nd           | Version:  11
     \\/     M anipulation  |
\*---------------------------------------------------------------------------*/
FoamFile
{
    format      ascii;
    class       volScalarField;
    location    "11";
    object      C;
}
// * * * * * * * * * * * * * * * * * * * * * * * * * * * * * * * * * * * * * //

dimensions      [0 0 0 0 0 0 0];

internalField   nonuniform List<scalar> 
400
(
1.09757e-90
2.27607e-85
4.21494e-80
6.86154e-75
9.619e-70
1.12899e-64
1.06509e-59
7.57177e-55
3.60563e-50
8.6261e-46
8.6261e-46
3.59966e-50
7.54384e-55
1.05861e-59
1.11902e-64
9.50435e-70
6.75635e-75
4.13462e-80
2.22353e-85
1.0675e-90
2.27607e-85
4.74179e-80
8.82194e-75
1.44284e-69
2.03218e-64
2.39644e-59
2.27151e-54
1.62252e-49
7.7633e-45
1.86622e-40
1.86622e-40
7.7532e-45
1.61774e-49
2.26035e-54
2.37916e-59
2.01224e-64
1.42451e-69
8.68172e-75
4.65e-80
2.22353e-85
4.21494e-80
8.82194e-75
1.64896e-69
2.70957e-64
3.8343e-59
4.54302e-54
4.3267e-49
3.1053e-44
1.49294e-39
3.60622e-35
3.60622e-35
1.49147e-39
3.09823e-44
4.30999e-49
4.51697e-54
3.80408e-59
2.68166e-64
1.62757e-69
8.68172e-75
4.13462e-80
6.86154e-75
1.44284e-69
2.70957e-64
4.47335e-59
6.36023e-54
7.57171e-49
7.24568e-44
5.22527e-39
2.5243e-34
6.12708e-30
6.12708e-30
2.52251e-34
5.21645e-39
7.22449e-44
7.5383e-49
6.32116e-54
4.43708e-59
2.68166e-64
1.42451e-69
6.75635e-75
9.619e-70
2.03218e-64
3.8343e-59
6.36023e-54
9.08605e-49
1.08685e-43
1.04505e-38
7.57287e-34
3.67618e-29
8.96648e-25
8.96648e-25
3.67442e-29
7.56391e-34
1.04285e-38
1.08332e-43
9.04429e-49
6.32116e-54
3.80408e-59
2.01224e-64
9.50435e-70
1.12899e-64
2.39644e-59
4.54302e-54
7.57171e-49
1.08685e-43
1.30631e-38
1.26214e-33
9.1904e-29
4.48315e-24
1.09884e-19
1.09884e-19
4.48185e-24
9.18336e-29
1.26035e-33
1.30337e-38
1.08332e-43
7.5383e-49
4.51697e-54
2.37916e-59
1.11902e-64
1.06509e-59
2.27151e-54
4.3267e-49
7.24568e-44
1.04505e-38
1.26214e-33
1.22538e-28
8.96626e-24
4.39526e-19
1.0826e-14
1.0826e-14
4.39462e-19
8.96237e-24
1.22433e-28
1.26035e-33
1.04285e-38
7.22449e-44
4.30999e-49
2.26035e-54
1.05861e-59
7.57177e-55
1.62252e-49
3.1053e-44
5.22527e-39
7.57287e-34
9.1904e-29
8.96626e-24
6.59287e-19
3.24774e-14
8.03913e-10
8.03913e-10
3.24758e-14
6.59158e-19
8.96237e-24
9.18336e-29
7.56391e-34
5.21645e-39
3.09823e-44
1.61774e-49
7.54384e-55
3.60563e-50
7.7633e-45
1.49294e-39
2.5243e-34
3.67618e-29
4.48315e-24
4.39526e-19
3.24774e-14
1.60781e-09
3.9996e-05
3.9996e-05
1.60781e-09
3.24758e-14
4.39462e-19
4.48185e-24
3.67442e-29
2.52251e-34
1.49147e-39
7.7532e-45
3.59966e-50
8.6261e-46
1.86622e-40
3.60622e-35
6.12708e-30
8.96648e-25
1.09884e-19
1.0826e-14
8.03913e-10
3.9996e-05
0.99992
0.99992
3.9996e-05
8.03913e-10
1.0826e-14
1.09884e-19
8.96648e-25
6.12708e-30
3.60622e-35
1.86622e-40
8.6261e-46
8.6261e-46
1.86622e-40
3.60622e-35
6.12708e-30
8.96648e-25
1.09884e-19
1.0826e-14
8.03913e-10
3.9996e-05
0.99992
0.99992
3.9996e-05
8.03913e-10
1.0826e-14
1.09884e-19
8.96648e-25
6.12708e-30
3.60622e-35
1.86622e-40
8.6261e-46
3.59966e-50
7.7532e-45
1.49147e-39
2.52251e-34
3.67442e-29
4.48185e-24
4.39462e-19
3.24758e-14
1.60781e-09
3.9996e-05
3.9996e-05
1.60781e-09
3.24774e-14
4.39526e-19
4.48315e-24
3.67618e-29
2.5243e-34
1.49294e-39
7.7633e-45
3.60563e-50
7.54384e-55
1.61774e-49
3.09823e-44
5.21645e-39
7.56391e-34
9.18336e-29
8.96237e-24
6.59158e-19
3.24758e-14
8.03913e-10
8.03913e-10
3.24774e-14
6.59287e-19
8.96626e-24
9.1904e-29
7.57287e-34
5.22527e-39
3.1053e-44
1.62252e-49
7.57177e-55
1.05861e-59
2.26035e-54
4.30999e-49
7.22449e-44
1.04285e-38
1.26035e-33
1.22433e-28
8.96237e-24
4.39462e-19
1.0826e-14
1.0826e-14
4.39526e-19
8.96626e-24
1.22538e-28
1.26214e-33
1.04505e-38
7.24568e-44
4.3267e-49
2.27151e-54
1.06509e-59
1.11902e-64
2.37916e-59
4.51697e-54
7.5383e-49
1.08332e-43
1.30337e-38
1.26035e-33
9.18336e-29
4.48185e-24
1.09884e-19
1.09884e-19
4.48315e-24
9.1904e-29
1.26214e-33
1.30631e-38
1.08685e-43
7.57171e-49
4.54302e-54
2.39644e-59
1.12899e-64
9.50435e-70
2.01224e-64
3.80408e-59
6.32116e-54
9.04429e-49
1.08332e-43
1.04285e-38
7.56391e-34
3.67442e-29
8.96648e-25
8.96648e-25
3.67618e-29
7.57287e-34
1.04505e-38
1.08685e-43
9.08605e-49
6.36023e-54
3.8343e-59
2.03218e-64
9.619e-70
6.75635e-75
1.42451e-69
2.68166e-64
4.43708e-59
6.32116e-54
7.5383e-49
7.22449e-44
5.21645e-39
2.52251e-34
6.12708e-30
6.12708e-30
2.5243e-34
5.22527e-39
7.24568e-44
7.57171e-49
6.36023e-54
4.47335e-59
2.70957e-64
1.44284e-69
6.86154e-75
4.13462e-80
8.68172e-75
1.62757e-69
2.68166e-64
3.80408e-59
4.51697e-54
4.30999e-49
3.09823e-44
1.49147e-39
3.60622e-35
3.60622e-35
1.49294e-39
3.1053e-44
4.3267e-49
4.54302e-54
3.8343e-59
2.70957e-64
1.64896e-69
8.82194e-75
4.21494e-80
2.22353e-85
4.65e-80
8.68172e-75
1.42451e-69
2.01224e-64
2.37916e-59
2.26035e-54
1.61774e-49
7.7532e-45
1.86622e-40
1.86622e-40
7.7633e-45
1.62252e-49
2.27151e-54
2.39644e-59
2.03218e-64
1.44284e-69
8.82194e-75
4.74179e-80
2.27607e-85
1.0675e-90
2.22353e-85
4.13462e-80
6.75635e-75
9.50435e-70
1.11902e-64
1.05861e-59
7.54384e-55
3.59966e-50
8.6261e-46
8.6261e-46
3.60563e-50
7.57177e-55
1.06509e-59
1.12899e-64
9.619e-70
6.86154e-75
4.21494e-80
2.27607e-85
1.09757e-90
)
;

boundaryField
{
    movingWall
    {
        type            zeroGradient;
    }
    fixedWalls
    {
        type            zeroGradient;
    }
    frontAndBack
    {
        type            empty;
    }
}


// ************************************************************************* //
