/*--------------------------------*- C++ -*----------------------------------*\
  =========                 |
  \\      /  F ield         | OpenFOAM: The Open Source CFD Toolbox
   \\    /   O peration     | Website:  https://openfoam.org
    \\  /    A nd           | Version:  11
     \\/     M anipulation  |
\*---------------------------------------------------------------------------*/
FoamFile
{
    format      ascii;
    class       volScalarField;
    location    "17";
    object      C;
}
// * * * * * * * * * * * * * * * * * * * * * * * * * * * * * * * * * * * * * //

dimensions      [0 0 0 0 0 0 0];

internalField   nonuniform List<scalar> 
400
(
0.0212025
0.0304276
0.0470952
0.0460049
0.0416287
0.039393
0.0382457
0.0378149
0.0379197
0.0384083
0.039168
0.0401015
0.0411144
0.0420977
0.0429467
0.0435282
0.0437556
0.0435202
0.0427981
0.0416803
0.0340235
0.0416108
0.0464952
0.0420041
0.0377098
0.0357461
0.0357292
0.0375377
0.0408277
0.0450962
0.0497733
0.0542712
0.0580064
0.0605089
0.0614367
0.0605497
0.0580223
0.0543491
0.0505209
0.0477106
0.0400493
0.0454996
0.0432974
0.0368532
0.032704
0.0319254
0.034766
0.0410878
0.0501679
0.0609024
0.0719209
0.0817216
0.0888584
0.0922538
0.0911797
0.0856086
0.0764662
0.0656852
0.0561028
0.0506139
0.0429907
0.045703
0.0392532
0.0313883
0.0270213
0.0273782
0.0333941
0.0452533
0.0620878
0.0819516
0.10201
0.119071
0.130262
0.133698
0.128661
0.115962
0.0978367
0.0777988
0.0605108
0.0508683
0.0444766
0.0448464
0.0354178
0.0258144
0.0202756
0.0207973
0.0294654
0.0473666
0.0736243
0.104979
0.136246
0.161561
0.176095
0.177319
0.165689
0.144303
0.117329
0.0889817
0.0644606
0.0508069
0.0453333
0.04415
0.0323935
0.0205369
0.0127545
0.0122324
0.0227741
0.0469012
0.0838747
0.128739
0.172956
0.206659
0.222132
0.216766
0.194489
0.163076
0.129327
0.0963165
0.0670279
0.0504444
0.0459402
0.0441038
0.0306668
0.0164406
0.00592451
0.00379007
0.0160295
0.0471008
0.0967027
0.15782
0.217099
0.258546
0.270247
0.251405
0.212737
0.169282
0.131161
0.0983508
0.0678493
0.0498548
0.0464132
0.0448971
0.030676
0.0146821
0.00201598
-0.0010074
0.0140695
0.0540408
0.119329
0.200317
0.276728
0.323465
0.323568
0.282911
0.222154
0.164456
0.123301
0.0947846
0.0668352
0.0490771
0.0467737
0.0464921
0.0327
0.0162578
0.00308839
0.00110873
0.0211161
0.0722262
0.155752
0.259309
0.353521
0.400048
0.378444
0.309612
0.224644
0.1524
0.10866
0.0866463
0.0641511
0.0481317
0.0469218
0.0487875
0.0367466
0.0216055
0.0101589
0.0114626
0.0377849
0.0997252
0.199844
0.324769
0.433858
0.469395
0.420429
0.324752
0.22014
0.13668
0.0908386
0.0755191
0.0602146
0.0470769
0.0468582
0.0512978
0.0425615
0.0304348
0.0227219
0.0288996
0.0610843
0.129143
0.234372
0.36185
0.475223
0.495413
0.429556
0.320601
0.207769
0.119799
0.0730905
0.0631234
0.0554227
0.045947
0.046528
0.0534862
0.0493708
0.0416607
0.038899
0.0502452
0.0859822
0.153076
0.249468
0.358255
0.442337
0.455722
0.396431
0.294897
0.187994
0.103384
0.057759
0.0510392
0.0502482
0.0447918
0.0458297
0.0547965
0.0559885
0.0536358
0.0560717
0.071524
0.107487
0.167207
0.245518
0.326156
0.380929
0.385647
0.337616
0.254864
0.163963
0.0883333
0.0457326
0.040701
0.0451097
0.0436417
0.0446533
0.0547309
0.0609658
0.0642781
0.0714238
0.0891478
0.122186
0.170811
0.228664
0.282634
0.315221
0.313544
0.276014
0.212547
0.139954
0.0758789
0.037277
0.0327921
0.0405107
0.0425339
0.0429134
0.0529194
0.0628709
0.0712488
0.0821549
0.100312
0.128298
0.16489
0.204443
0.237902
0.255469
0.250356
0.221557
0.17422
0.118241
0.0659418
0.0321272
0.0276134
0.0368933
0.0415073
0.0406606
0.049473
0.0609419
0.0725752
0.0857542
0.102875
0.124941
0.150442
0.175414
0.194447
0.202403
0.195912
0.174202
0.139735
0.0980765
0.0574307
0.0295666
0.025184
0.03451
0.0406137
0.0390606
0.0451906
0.0554385
0.0673756
0.0804684
0.0950888
0.111126
0.127316
0.141395
0.150632
0.152633
0.145916
0.130101
0.106249
0.0775365
0.0490597
0.028844
0.0253737
0.0335294
0.0399033
0.0410064
0.0423125
0.0485
0.0572852
0.0671933
0.0774223
0.0872815
0.0958605
0.10211
0.104957
0.103618
0.0976095
0.0871281
0.0728977
0.0566641
0.0409469
0.0296945
0.028012
0.0340185
0.0394146
0.044186
0.0417252
0.043246
0.0466764
0.0509448
0.055219
0.0588911
0.0615165
0.0627784
0.0624771
0.060573
0.0571244
0.0523897
0.0468231
0.0410787
0.0360332
0.0326099
0.0327677
0.0358984
0.0391805
0.0454104
0.0442054
0.043184
0.0426065
0.0423906
0.0423405
0.0422917
0.042151
0.0418787
0.0414762
0.0409698
0.0403996
0.0398118
0.0392545
0.0387756
0.0384085
0.0381696
0.0382173
0.038405
0.0391918
)
;

boundaryField
{
    movingWall
    {
        type            zeroGradient;
    }
    fixedWalls
    {
        type            zeroGradient;
    }
    frontAndBack
    {
        type            empty;
    }
}


// ************************************************************************* //
