/*--------------------------------*- C++ -*----------------------------------*\
  =========                 |
  \\      /  F ield         | OpenFOAM: The Open Source CFD Toolbox
   \\    /   O peration     | Website:  https://openfoam.org
    \\  /    A nd           | Version:  11
     \\/     M anipulation  |
\*---------------------------------------------------------------------------*/
FoamFile
{
    format      ascii;
    class       volScalarField;
    location    "11.25";
    object      C;
}
// * * * * * * * * * * * * * * * * * * * * * * * * * * * * * * * * * * * * * //

dimensions      [0 0 0 0 0 0 0];

internalField   nonuniform List<scalar> 
400
(
0.00162168
0.0163859
0.0149756
0.0293834
0.0920575
0.122427
0.121745
0.105476
0.0845983
0.0643295
0.0470637
0.0336684
0.0242439
0.0186919
0.0159042
0.015267
0.0162242
0.0189372
0.0242401
0.0331425
0.0235708
0.0152987
0.0289687
0.080319
0.13456
0.14611
0.126359
0.0931451
0.0587682
0.0295218
0.0081102
-0.00498332
-0.0107804
-0.0118348
-0.00980035
-0.00683379
-0.00457744
-0.00374487
-0.00399567
-0.00441213
0.0242588
0.0186032
0.0616917
0.1353
0.186166
0.196637
0.183105
0.158513
0.127679
0.0926402
0.057031
0.0264202
0.00587032
-0.00274438
-0.0029135
0.000146313
0.00217364
0.00203496
0.00116079
0.000828318
0.0222709
0.0249064
0.0894734
0.172879
0.228987
0.258097
0.272816
0.271731
0.245643
0.192652
0.123766
0.058191
0.0126775
-0.00715234
-0.00776311
-0.00160236
0.00168974
0.000883997
-0.000486293
-0.000856618
0.0209838
0.0278506
0.0988743
0.179865
0.239385
0.288642
0.334345
0.361516
0.348256
0.286451
0.189575
0.0875322
0.0123929
-0.0195791
-0.0171175
-0.00417449
0.00174089
0.000653666
-0.000941956
-0.00165034
0.0206368
0.0253373
0.0887276
0.154707
0.206683
0.264681
0.334925
0.39679
0.417361
0.372712
0.26428
0.12622
0.0123046
-0.038702
-0.033096
-0.0112777
-0.00125539
-0.00117975
-0.00206717
-0.00301142
0.0209943
0.0190642
0.0661772
0.108831
0.142722
0.195882
0.280548
0.380533
0.457189
0.463895
0.372534
0.20575
0.038799
-0.0491074
-0.0489028
-0.0215889
-0.00744764
-0.00454004
-0.00361125
-0.00430972
0.0220164
0.0117815
0.040813
0.0595749
0.0718642
0.109949
0.193053
0.317785
0.454953
0.546891
0.524499
0.361484
0.129914
-0.0200926
-0.046007
-0.0268183
-0.0138257
-0.00867295
-0.00552693
-0.00528102
0.0236165
0.00569489
0.019955
0.0209694
0.0158227
0.034523
0.0966996
0.211838
0.3794
0.56816
0.683259
0.594096
0.303447
0.0787457
0.000555927
-0.0118493
-0.013382
-0.0114506
-0.00738723
-0.00567781
0.0260299
0.00158024
0.00674951
-0.00126092
-0.0155025
-0.0127242
0.0189955
0.0879873
0.213186
0.427359
0.702938
0.800329
0.5111
0.243418
0.103168
0.0371886
0.00245539
-0.00977373
-0.00836017
-0.00523512
0.0291471
4.12067e-05
0.000157328
-0.00906766
-0.0242283
-0.02943
-0.0213113
-0.00119659
0.0458937
0.18346
0.574861
0.776248
0.635189
0.414368
0.242035
0.121035
0.0393018
-0.00043377
-0.0073066
-0.00371559
0.0330998
0.000979415
-0.00239234
-0.00834043
-0.019278
-0.0253239
-0.0271651
-0.0338718
-0.0401217
0.0230076
0.282527
0.526845
0.592217
0.508974
0.368395
0.221931
0.0956346
0.0188552
-0.00291083
-0.000918184
0.038319
0.0043372
-0.0030928
-0.00518136
-0.0102838
-0.0136415
-0.0158386
-0.0276056
-0.0507754
-0.0302459
0.111073
0.312388
0.458476
0.494891
0.434119
0.309725
0.161254
0.0483534
0.00608734
0.00329933
0.0455622
0.01053
-0.00262066
-0.00347318
-0.00377273
-0.00378486
-0.00335636
-0.0106192
-0.0305163
-0.0317004
0.0320629
0.160564
0.303257
0.402639
0.425031
0.359305
0.221767
0.0850223
0.0204498
0.00900355
0.0554232
0.0202403
0.000132546
-0.00374544
-0.00223599
0.000350359
0.00325158
0.001358
-0.0104321
-0.0200855
-0.00192971
0.0614468
0.163724
0.277031
0.359982
0.363906
0.264522
0.123363
0.0395776
0.0161826
0.0738259
0.0358963
0.00769291
-0.00343847
-0.00466336
-0.00195345
0.00191735
0.00301516
-0.00307725
-0.0140553
-0.0172218
0.00565384
0.0679933
0.168767
0.278493
0.335038
0.283231
0.15708
0.0613517
0.0245837
0.0985376
0.0611897
0.0261371
0.00505574
-0.0041679
-0.0064203
-0.00564497
-0.00568571
-0.0100571
-0.0189612
-0.0255346
-0.0156509
0.0274404
0.111511
0.217871
0.293027
0.278211
0.17934
0.0817265
0.0336187
0.0766771
0.0758615
0.05315
0.0302679
0.0142423
0.00494692
0.000166334
-0.0025725
-0.0049828
-0.00648834
-0.00272733
0.0147807
0.0547605
0.119315
0.195578
0.251545
0.250361
0.180818
0.0943749
0.042358
0.037935
0.0789064
0.080875
0.0735621
0.0654088
0.0596394
0.0570004
0.0573717
0.0606995
0.0675838
0.0793174
0.097602
0.123312
0.153594
0.182725
0.198039
0.19056
0.146959
0.0909397
0.0494917
-0.00323108
0.0111047
0.0254104
0.0365035
0.0442277
0.0496452
0.0538023
0.0574077
0.0608629
0.0643847
0.0680362
0.071719
0.0752171
0.0780753
0.0798752
0.0801395
0.0788488
0.0743195
0.0690082
0.0533948
)
;

boundaryField
{
    movingWall
    {
        type            zeroGradient;
    }
    fixedWalls
    {
        type            zeroGradient;
    }
    frontAndBack
    {
        type            empty;
    }
}


// ************************************************************************* //
