/*--------------------------------*- C++ -*----------------------------------*\
  =========                 |
  \\      /  F ield         | OpenFOAM: The Open Source CFD Toolbox
   \\    /   O peration     | Website:  https://openfoam.org
    \\  /    A nd           | Version:  11
     \\/     M anipulation  |
\*---------------------------------------------------------------------------*/
FoamFile
{
    format      ascii;
    class       volScalarField;
    location    "18.875";
    object      C;
}
// * * * * * * * * * * * * * * * * * * * * * * * * * * * * * * * * * * * * * //

dimensions      [0 0 0 0 0 0 0];

internalField   nonuniform List<scalar> 
400
(
0.0259687
0.0333796
0.0450763
0.0483584
0.0471781
0.0453585
0.043974
0.0428561
0.0420261
0.0414506
0.0411002
0.040946
0.0409667
0.0411643
0.0414787
0.0418592
0.042231
0.0425304
0.0427296
0.0428718
0.0360636
0.0413124
0.0473953
0.0471382
0.0441975
0.0410077
0.0383605
0.0364984
0.0356306
0.0357683
0.0367921
0.0384925
0.040588
0.042722
0.0445824
0.0458457
0.0463021
0.0458954
0.0448549
0.0436976
0.0402253
0.0456976
0.0477107
0.0444525
0.0394145
0.0345423
0.0308805
0.0291352
0.0296662
0.0324095
0.0369692
0.0426396
0.0485054
0.0535804
0.0569391
0.0579494
0.0565246
0.0532557
0.0494415
0.0467513
0.0425402
0.0477897
0.047032
0.0413504
0.0341743
0.0275358
0.0230416
0.0220574
0.0253719
0.0329113
0.0437022
0.0559754
0.0675128
0.0760933
0.0799939
0.078474
0.0721292
0.0629405
0.0539354
0.0483727
0.0439346
0.0490571
0.0465683
0.0390244
0.0299303
0.0217573
0.0170204
0.0180968
0.0263575
0.0414754
0.0612856
0.0822146
0.100151
0.111402
0.113665
0.106717
0.09254
0.0749494
0.0589017
0.0495392
0.0448037
0.0502647
0.0471273
0.0386168
0.028496
0.01995
0.0166495
0.0220523
0.0378512
0.0629
0.0931614
0.122666
0.145149
0.155836
0.152921
0.137813
0.114301
0.087564
0.0638519
0.0504187
0.0453444
0.0516984
0.0491093
0.0410225
0.0316633
0.0251359
0.026301
0.0394124
0.0658672
0.10284
0.143517
0.178885
0.200551
0.204364
0.191227
0.165707
0.133315
0.0989176
0.0682889
0.0510609
0.0455923
0.0533394
0.0525361
0.0465869
0.0403829
0.0390689
0.0485767
0.0735773
0.114486
0.165679
0.216028
0.252208
0.264156
0.25239
0.223228
0.185599
0.146194
0.107304
0.0717889
0.0514907
0.0455784
0.0550025
0.0570576
0.054888
0.0541237
0.0608833
0.0819178
0.122076
0.180586
0.248331
0.307624
0.337897
0.329587
0.294262
0.245082
0.19505
0.151279
0.111781
0.0740467
0.0517014
0.0452507
0.0564126
0.0620566
0.064802
0.0708608
0.0869051
0.119854
0.174412
0.249496
0.334056
0.401148
0.416842
0.38229
0.321528
0.253519
0.193527
0.148484
0.112074
0.0749962
0.0517193
0.0446934
0.0570853
0.0665977
0.0746531
0.0875616
0.111894
0.153698
0.216379
0.297651
0.385314
0.454485
0.45552
0.402365
0.325003
0.246096
0.181813
0.138928
0.108457
0.0746009
0.0515487
0.0439335
0.0566903
0.069644
0.0825844
0.10105
0.13077
0.176013
0.237868
0.312029
0.385688
0.434045
0.429775
0.377473
0.30032
0.222692
0.161751
0.124471
0.101589
0.0729904
0.0512176
0.0429862
0.0550441
0.0702552
0.0868973
0.108771
0.140096
0.183039
0.236358
0.29432
0.345615
0.372671
0.362685
0.317788
0.252868
0.187041
0.135824
0.10719
0.0925613
0.0702532
0.0507268
0.0419216
0.0522295
0.0679086
0.0864243
0.109274
0.138732
0.175145
0.215892
0.255289
0.285073
0.295657
0.281736
0.245501
0.196044
0.146222
0.107989
0.0890903
0.0823547
0.0664855
0.0500836
0.0409111
0.0486065
0.0626903
0.0807465
0.102209
0.127371
0.155323
0.183213
0.206616
0.220507
0.22067
0.20559
0.177518
0.14214
0.107575
0.0820601
0.0721394
0.0719542
0.0620608
0.0492904
0.0403474
0.0449504
0.0556395
0.0707534
0.0886075
0.108038
0.127478
0.144561
0.156501
0.16079
0.156039
0.142458
0.121915
0.0980396
0.0759341
0.0609464
0.0579926
0.0622481
0.0573644
0.0483748
0.0414058
0.0424846
0.0485369
0.0586638
0.0710274
0.0839184
0.0956992
0.104717
0.109543
0.109219
0.103584
0.0933328
0.0799007
0.0654583
0.0531681
0.0462365
0.0477709
0.0539582
0.0527288
0.04737
0.0440172
0.042006
0.0435104
0.0479578
0.0539986
0.0602502
0.0655319
0.0689105
0.0698209
0.0680614
0.0638773
0.057842
0.0509478
0.0444308
0.0398579
0.0386487
0.0420879
0.0476913
0.0485401
0.0463325
0.0454039
0.0432093
0.0422495
0.042481
0.0434493
0.0445831
0.0454076
0.0456234
0.045116
0.0439346
0.0422717
0.0404076
0.0387172
0.0375982
0.0374124
0.0384978
0.0409994
0.043992
0.0452149
0.0453343
0.0439495
0.0434106
0.0429156
0.0424897
0.0421288
0.0418191
0.0415435
0.0412928
0.0410735
0.0409004
0.0407942
0.0407756
0.0408597
0.0410594
0.0413743
0.0417887
0.0422886
0.0428517
0.0433297
0.0445633
)
;

boundaryField
{
    movingWall
    {
        type            zeroGradient;
    }
    fixedWalls
    {
        type            zeroGradient;
    }
    frontAndBack
    {
        type            empty;
    }
}


// ************************************************************************* //
