/*--------------------------------*- C++ -*----------------------------------*\
  =========                 |
  \\      /  F ield         | OpenFOAM: The Open Source CFD Toolbox
   \\    /   O peration     | Website:  https://openfoam.org
    \\  /    A nd           | Version:  11
     \\/     M anipulation  |
\*---------------------------------------------------------------------------*/
FoamFile
{
    format      ascii;
    class       volScalarField;
    location    "12.75";
    object      C;
}
// * * * * * * * * * * * * * * * * * * * * * * * * * * * * * * * * * * * * * //

dimensions      [0 0 0 0 0 0 0];

internalField   nonuniform List<scalar> 
400
(
0.00802448
0.0175574
0.0343565
0.054921
0.0462776
0.0410418
0.0380351
0.0355681
0.0337174
0.0323442
0.0314589
0.0310964
0.0313204
0.0321998
0.0336371
0.0354821
0.0374011
0.0388812
0.0392999
0.0383062
0.0206706
0.0292049
0.0468223
0.0486963
0.0378395
0.0307337
0.0249208
0.0201695
0.0168654
0.0152628
0.015662
0.018291
0.0232052
0.0300993
0.0384018
0.0469726
0.0541945
0.0582766
0.0580278
0.0541006
0.0255476
0.0407401
0.0492249
0.0394356
0.0269298
0.0178612
0.010176
0.00422069
0.00036983
-0.000778118
0.00164627
0.00839595
0.0197034
0.0348588
0.0519328
0.0677954
0.0788528
0.0823666
0.078419
0.0716328
0.0300451
0.0472409
0.0463328
0.0305467
0.0170395
0.00689171
-0.00156805
-0.00820746
-0.0124926
-0.0129034
-0.00731697
0.00591422
0.0268199
0.0530612
0.0799218
0.101313
0.111637
0.108018
0.0930191
0.0771767
0.0335663
0.0507386
0.0427175
0.0235207
0.00912961
-0.00166274
-0.0105153
-0.017552
-0.0215816
-0.0193863
-0.00693865
0.0180966
0.0540756
0.0944507
0.130009
0.152223
0.15551
0.13867
0.107288
0.0785871
0.0360828
0.0534839
0.040706
0.0188363
0.00295297
-0.00917122
-0.0194136
-0.0278161
-0.031476
-0.0238172
0.00208553
0.0476337
0.105156
0.159631
0.197902
0.213001
0.203155
0.169909
0.120288
0.0782605
0.0378438
0.0568631
0.0415871
0.0173355
-0.000608302
-0.0147664
-0.0272581
-0.0374913
-0.0392676
-0.0204816
0.0287407
0.104008
0.183836
0.243008
0.27063
0.268961
0.24329
0.195916
0.130215
0.0768636
0.038796
0.0614808
0.0463973
0.0208285
0.00182867
-0.0123592
-0.0236274
-0.0303703
-0.0226899
0.0170145
0.0987058
0.204321
0.290591
0.331349
0.329752
0.303537
0.264657
0.21116
0.135612
0.0747198
0.0388924
0.0672793
0.055857
0.0315165
0.0147961
0.00656294
0.0064629
0.0172364
0.0504026
0.124699
0.241862
0.358846
0.412227
0.402646
0.35688
0.305102
0.260599
0.212354
0.135563
0.0719498
0.0376481
0.0737026
0.0700491
0.0506132
0.0408388
0.0456806
0.0674238
0.110631
0.188914
0.317127
0.463604
0.538282
0.511201
0.429602
0.339728
0.271214
0.231286
0.19905
0.130194
0.0687398
0.0351965
0.0786062
0.0876
0.0776063
0.0783463
0.0997256
0.145509
0.218874
0.328672
0.48195
0.644825
0.643542
0.529863
0.390829
0.277605
0.209102
0.183194
0.17345
0.120015
0.0652004
0.0314977
0.0798272
0.104794
0.108898
0.121613
0.156901
0.217693
0.301347
0.404974
0.521696
0.601688
0.56312
0.43261
0.288278
0.184551
0.133137
0.126691
0.139708
0.106251
0.0614999
0.026553
0.075445
0.116059
0.137507
0.162089
0.204612
0.266102
0.337596
0.405803
0.455944
0.454475
0.382919
0.267962
0.15802
0.0870771
0.0602398
0.0723349
0.103334
0.0901873
0.0577263
0.020818
0.0646888
0.115679
0.15408
0.189535
0.233014
0.283952
0.331202
0.359173
0.354872
0.307757
0.224546
0.130596
0.054694
0.013464
0.00558958
0.0281512
0.0692774
0.0732999
0.0539806
0.0157653
0.0487747
0.100391
0.149615
0.193102
0.234254
0.271086
0.294741
0.294325
0.263413
0.204107
0.128508
0.0555346
0.00238557
-0.023082
-0.0241103
-0.00111534
0.0413374
0.0575633
0.0503404
0.0146626
0.0323298
0.0731672
0.121328
0.165816
0.202447
0.227517
0.235768
0.222649
0.187578
0.136139
0.078533
0.0262271
-0.0112432
-0.0300375
-0.0320701
-0.0151188
0.021744
0.0445289
0.0469557
0.0217201
0.0221008
0.0435098
0.0773948
0.112126
0.139913
0.155976
0.157453
0.14374
0.116935
0.0819099
0.0452504
0.0129087
-0.010819
-0.0241507
-0.0272328
-0.0167015
0.0113414
0.03528
0.0439599
0.0376828
0.0225948
0.0237003
0.0364522
0.0529468
0.066724
0.0738655
0.0727768
0.063934
0.0492757
0.0316793
0.0141588
-0.00062098
-0.0110155
-0.0165254
-0.0165825
-0.0090485
0.0102187
0.0305241
0.0414722
0.0499011
0.030501
0.021338
0.0182229
0.0183168
0.019017
0.0186349
0.0165262
0.0128773
0.00835768
0.00380953
-7.66762e-06
-0.00256131
-0.0033899
-0.00253258
0.000876776
0.00694654
0.0182237
0.0305518
0.0395995
0.0534933
0.0482186
0.0425117
0.0374026
0.0332812
0.0301371
0.0278032
0.0261114
0.0249702
0.024319
0.024116
0.024321
0.0248793
0.0257692
0.0269373
0.0283724
0.0299848
0.0321251
0.0342736
0.0385352
)
;

boundaryField
{
    movingWall
    {
        type            zeroGradient;
    }
    fixedWalls
    {
        type            zeroGradient;
    }
    frontAndBack
    {
        type            empty;
    }
}


// ************************************************************************* //
