/*--------------------------------*- C++ -*----------------------------------*\
  =========                 |
  \\      /  F ield         | OpenFOAM: The Open Source CFD Toolbox
   \\    /   O peration     | Website:  https://openfoam.org
    \\  /    A nd           | Version:  11
     \\/     M anipulation  |
\*---------------------------------------------------------------------------*/
FoamFile
{
    format      ascii;
    class       volScalarField;
    location    "18.5";
    object      C;
}
// * * * * * * * * * * * * * * * * * * * * * * * * * * * * * * * * * * * * * //

dimensions      [0 0 0 0 0 0 0];

internalField   nonuniform List<scalar> 
400
(
0.0251032
0.0331911
0.0426258
0.041734
0.0457517
0.0477797
0.0487959
0.0492385
0.0492739
0.049031
0.0485981
0.0480416
0.0474154
0.0467714
0.0461694
0.045673
0.0453386
0.0452341
0.045407
0.0458501
0.0361368
0.0394296
0.0430263
0.0459599
0.0508061
0.0535544
0.0548133
0.0546739
0.0533705
0.051241
0.0486573
0.0459747
0.0435236
0.0415776
0.0402885
0.0397549
0.0399265
0.0406564
0.0416726
0.0426483
0.0396603
0.0420813
0.0463019
0.0529681
0.0593981
0.0631445
0.0641849
0.0624363
0.058349
0.052684
0.0463426
0.0402722
0.0353425
0.0321497
0.0309368
0.0316175
0.0337369
0.0365462
0.0391194
0.0406353
0.0409023
0.0441106
0.0515647
0.0620816
0.0711883
0.076816
0.078094
0.0745249
0.066608
0.055741
0.0438422
0.0329698
0.0248601
0.0204388
0.0198362
0.0224885
0.0273024
0.0328748
0.0376558
0.0402545
0.0413694
0.0461226
0.057655
0.0726893
0.0860883
0.0953658
0.0984538
0.0940422
0.0825645
0.0661876
0.0481222
0.0317839
0.0198588
0.0136243
0.0129859
0.0166577
0.0229193
0.0301662
0.0366481
0.0401961
0.0415179
0.0478032
0.0634809
0.0837857
0.103268
0.11873
0.126803
0.125105
0.113555
0.0943811
0.0714299
0.0492732
0.0318614
0.0215411
0.0182123
0.0197343
0.0239227
0.0298663
0.0364633
0.0403966
0.0414975
0.0487863
0.0680458
0.0938414
0.1207
0.145008
0.162492
0.169629
0.164828
0.148541
0.123455
0.0946903
0.0684134
0.0498721
0.0396888
0.0347247
0.0322232
0.0328087
0.0372602
0.0407828
0.041391
0.0488061
0.0705024
0.101063
0.135341
0.170032
0.200897
0.223671
0.234313
0.228995
0.206113
0.169724
0.129611
0.0976224
0.0760891
0.0607459
0.0476803
0.0391671
0.0390891
0.0413235
0.0412765
0.0478506
0.070311
0.103855
0.143894
0.188123
0.23351
0.276167
0.309863
0.324783
0.310748
0.266511
0.207832
0.158063
0.121795
0.0937747
0.0682669
0.0483708
0.0418662
0.0419948
0.0412756
0.0460315
0.0673698
0.101392
0.143945
0.194001
0.250389
0.310846
0.369232
0.411712
0.414897
0.36297
0.28698
0.219921
0.16879
0.12827
0.0909291
0.0594139
0.0453989
0.0427665
0.041415
0.0437753
0.0619389
0.0935652
0.134659
0.184946
0.244904
0.31389
0.386392
0.446936
0.469987
0.423041
0.343971
0.268877
0.208131
0.158496
0.112356
0.0710842
0.0494544
0.0436128
0.0417458
0.0415958
0.0549168
0.0814309
0.117276
0.162099
0.217178
0.282822
0.354133
0.416139
0.442809
0.417439
0.358367
0.291683
0.231756
0.179721
0.129565
0.0821237
0.0537657
0.0445063
0.0423374
0.0400158
0.0476168
0.0669822
0.0947937
0.130076
0.173939
0.227033
0.285634
0.338245
0.366678
0.361414
0.328591
0.282615
0.234918
0.188774
0.140522
0.091336
0.0580134
0.0454156
0.0432462
0.0394923
0.0415966
0.0529279
0.0713538
0.0954216
0.125551
0.162359
0.203777
0.24303
0.270132
0.278885
0.269524
0.247367
0.218364
0.184816
0.144243
0.0976234
0.0617258
0.0463045
0.044462
0.0402789
0.0382165
0.0420965
0.0513643
0.0647633
0.0821567
0.103967
0.129542
0.155989
0.178814
0.194308
0.200734
0.198327
0.188189
0.169902
0.140617
0.10027
0.0644338
0.0471415
0.045815
0.0422277
0.0381157
0.0366781
0.038647
0.0435803
0.0513202
0.0621561
0.0761907
0.0926969
0.110124
0.126563
0.140301
0.149731
0.153291
0.148166
0.130665
0.0989346
0.0657575
0.047873
0.0460733
0.0444663
0.0407938
0.0372472
0.0351769
0.0350129
0.0369748
0.0413807
0.0485465
0.0585156
0.0709272
0.0849025
0.0992187
0.112213
0.12172
0.124172
0.115931
0.0933908
0.0652468
0.0484249
0.0433986
0.0453299
0.0442768
0.0419027
0.0396136
0.0382553
0.0383414
0.040242
0.044217
0.0503708
0.0585807
0.0684116
0.0790117
0.0890636
0.0971763
0.10074
0.0975643
0.0832501
0.062439
0.0487246
0.040987
0.0451141
0.0465612
0.0468795
0.0468382
0.0470108
0.0477739
0.0493471
0.0518215
0.0551791
0.0592889
0.0638949
0.0686474
0.0728867
0.0762034
0.07721
0.0755879
0.0680319
0.0568856
0.0486865
0.0402187
0.04153
0.0429105
0.0441317
0.0451576
0.0460401
0.0468457
0.0476209
0.048382
0.0491247
0.0498295
0.050466
0.0510057
0.0513967
0.0516173
0.0516041
0.0514065
0.0506928
0.0497516
0.0483192
)
;

boundaryField
{
    movingWall
    {
        type            zeroGradient;
    }
    fixedWalls
    {
        type            zeroGradient;
    }
    frontAndBack
    {
        type            empty;
    }
}


// ************************************************************************* //
