/*--------------------------------*- C++ -*----------------------------------*\
  =========                 |
  \\      /  F ield         | OpenFOAM: The Open Source CFD Toolbox
   \\    /   O peration     | Website:  https://openfoam.org
    \\  /    A nd           | Version:  11
     \\/     M anipulation  |
\*---------------------------------------------------------------------------*/
FoamFile
{
    format      ascii;
    class       volScalarField;
    location    "19.125";
    object      C;
}
// * * * * * * * * * * * * * * * * * * * * * * * * * * * * * * * * * * * * * //

dimensions      [0 0 0 0 0 0 0];

internalField   nonuniform List<scalar> 
400
(
0.0264966
0.0338617
0.0468711
0.0449326
0.0419324
0.0411405
0.0411287
0.0415722
0.0422755
0.0431095
0.0439874
0.0448411
0.045608
0.0462183
0.046629
0.0467747
0.046645
0.0462118
0.0455018
0.0445846
0.0366743
0.0425353
0.0457308
0.0423588
0.0406279
0.0412589
0.043397
0.0466369
0.0504543
0.0543286
0.0577975
0.0604686
0.0620303
0.0623462
0.0613698
0.0591642
0.0561102
0.0527639
0.0499217
0.0482736
0.0413849
0.0450818
0.0431573
0.0398051
0.0399124
0.0433494
0.0495737
0.0578021
0.0669368
0.0758121
0.0832688
0.0883041
0.0901951
0.0886961
0.0838998
0.0764215
0.0674451
0.0586149
0.051823
0.0485107
0.0435128
0.0447737
0.0402796
0.0373832
0.0393214
0.0461054
0.0574833
0.0724322
0.089138
0.10528
0.118359
0.126279
0.127775
0.122712
0.111874
0.0970127
0.0805032
0.0650455
0.0534392
0.0478627
0.0444719
0.0436503
0.0374473
0.0345396
0.037621
0.0473946
0.0641945
0.0869846
0.113054
0.138355
0.158362
0.169266
0.169075
0.15811
0.138906
0.115433
0.0916074
0.0704636
0.0547301
0.0472754
0.0449716
0.0425855
0.0347785
0.0309641
0.0339897
0.0456578
0.067363
0.0984552
0.135387
0.171983
0.200772
0.215132
0.211646
0.191621
0.161053
0.12779
0.0977952
0.0732969
0.0551677
0.0466382
0.045329
0.0419407
0.032513
0.0269486
0.0286599
0.0408837
0.0666555
0.106384
0.156111
0.207198
0.247828
0.266643
0.257676
0.224516
0.178802
0.13391
0.0984819
0.0731024
0.0546467
0.0459628
0.0456575
0.041918
0.0310496
0.0233268
0.0229288
0.034734
0.0639483
0.112823
0.177624
0.246954
0.302806
0.326467
0.308579
0.258168
0.194272
0.13604
0.0949537
0.0701602
0.05323
0.0452567
0.0459765
0.0425798
0.0308202
0.0211611
0.0186255
0.029706
0.0619335
0.119856
0.20063
0.290391
0.363434
0.390391
0.359255
0.289694
0.207818
0.13654
0.0894205
0.0654256
0.0511206
0.0445286
0.046224
0.0439621
0.0321259
0.0213537
0.0173925
0.0279216
0.0622442
0.126828
0.220368
0.328501
0.417179
0.442129
0.396916
0.311968
0.217266
0.136391
0.0837635
0.0599486
0.0486213
0.0438077
0.0463724
0.0458172
0.0351346
0.0243769
0.0200837
0.0304272
0.0652338
0.131365
0.227494
0.33873
0.434409
0.45572
0.406213
0.317553
0.219707
0.135322
0.0791082
0.0546449
0.0459925
0.0431121
0.0463698
0.0477997
0.0395879
0.0300977
0.0265606
0.0369619
0.0702503
0.132062
0.219712
0.317866
0.39607
0.418403
0.380714
0.30341
0.213465
0.132605
0.0757598
0.0501697
0.0434969
0.0424658
0.0461305
0.0495072
0.0448376
0.0378448
0.0358833
0.0462637
0.0761114
0.128996
0.200972
0.278243
0.337384
0.357369
0.332624
0.27374
0.199362
0.127443
0.0731365
0.0469562
0.0413489
0.0418843
0.0455422
0.0505
0.0498699
0.0463946
0.0465581
0.0566334
0.0817081
0.123423
0.17758
0.233524
0.27609
0.292509
0.277939
0.236744
0.179779
0.119883
0.0707172
0.044876
0.0397759
0.0413868
0.0444645
0.0503419
0.0534697
0.0540356
0.0566645
0.0662166
0.0860437
0.11657
0.15429
0.192043
0.220903
0.233259
0.225332
0.198127
0.156963
0.109851
0.0678367
0.0436869
0.0388727
0.0410037
0.0427599
0.0488464
0.0546336
0.058869
0.0639557
0.0729961
0.0879667
0.108783
0.133059
0.15658
0.174478
0.182506
0.177997
0.16052
0.132171
0.0973161
0.0639603
0.0431109
0.0386259
0.0407544
0.0406628
0.0460825
0.052845
0.0593023
0.0660567
0.0744695
0.0854056
0.098637
0.112831
0.125863
0.135368
0.139229
0.135862
0.124548
0.106056
0.0824703
0.0588205
0.0428593
0.038961
0.0406473
0.0405538
0.0435196
0.0489458
0.0552018
0.0617682
0.0687229
0.0761266
0.0836952
0.0908083
0.0965933
0.100162
0.100639
0.0974674
0.0902828
0.0795907
0.0661936
0.0525528
0.0426334
0.0397126
0.0406731
0.0421942
0.0420879
0.0446055
0.0481535
0.0520771
0.0559676
0.0595573
0.0626266
0.0649635
0.0663607
0.066663
0.0657249
0.0635216
0.0600957
0.055796
0.0508288
0.0459235
0.042103
0.0405909
0.040807
0.0443295
0.0438628
0.0435478
0.0435686
0.0438547
0.0442422
0.0445966
0.0448428
0.0449423
0.0448874
0.0446881
0.0443653
0.0439488
0.0434641
0.0429533
0.0424304
0.0419341
0.0415071
0.0411683
0.0409728
)
;

boundaryField
{
    movingWall
    {
        type            zeroGradient;
    }
    fixedWalls
    {
        type            zeroGradient;
    }
    frontAndBack
    {
        type            empty;
    }
}


// ************************************************************************* //
