/*--------------------------------*- C++ -*----------------------------------*\
  =========                 |
  \\      /  F ield         | OpenFOAM: The Open Source CFD Toolbox
   \\    /   O peration     | Website:  https://openfoam.org
    \\  /    A nd           | Version:  11
     \\/     M anipulation  |
\*---------------------------------------------------------------------------*/
FoamFile
{
    format      ascii;
    class       volScalarField;
    location    "15";
    object      C;
}
// * * * * * * * * * * * * * * * * * * * * * * * * * * * * * * * * * * * * * //

dimensions      [0 0 0 0 0 0 0];

internalField   nonuniform List<scalar> 
400
(
0.015336
0.0264327
0.0433831
0.0405843
0.0350889
0.0330335
0.032361
0.0327386
0.0338748
0.0355415
0.0375583
0.03976
0.0419675
0.0439228
0.0454753
0.0463911
0.046548
0.0457454
0.0438893
0.0410561
0.0306963
0.037816
0.0417266
0.0358726
0.0315694
0.0309019
0.0330372
0.0377846
0.044494
0.0523244
0.0603549
0.0676561
0.0733415
0.0768119
0.0775863
0.0754161
0.070737
0.0645063
0.0584007
0.0542187
0.0369052
0.0412183
0.0375632
0.0304146
0.0272772
0.0288964
0.0353564
0.0463345
0.0607314
0.076986
0.0931502
0.107077
0.116702
0.120526
0.117642
0.108237
0.0939116
0.0776895
0.0637711
0.0561946
0.0397372
0.0408529
0.032834
0.0247633
0.021875
0.0250511
0.0353053
0.0528214
0.0765119
0.103852
0.130999
0.153519
0.167455
0.170379
0.161678
0.142938
0.117545
0.0902911
0.0672973
0.0548792
0.0411197
0.0395287
0.0284584
0.0187905
0.0145888
0.017587
0.0302461
0.0540349
0.0881388
0.128599
0.168613
0.200178
0.216717
0.215225
0.197335
0.168314
0.134062
0.0993352
0.0697112
0.0536625
0.0419415
0.0384834
0.0248911
0.0127234
0.00554582
0.00629793
0.0194682
0.0485904
0.0936938
0.14932
0.204455
0.245361
0.261172
0.249077
0.216519
0.176062
0.137058
0.101383
0.069794
0.0522615
0.0425905
0.0381865
0.0225238
0.00734202
-0.00393349
-0.00704504
0.00499779
0.0387415
0.096215
0.170725
0.245084
0.296077
0.305937
0.27453
0.220089
0.165887
0.125499
0.0956658
0.0674108
0.0507301
0.0431912
0.038841
0.0217698
0.00378096
-0.0115966
-0.0187841
-0.00795877
0.0313221
0.104285
0.203137
0.301709
0.362058
0.357077
0.296414
0.213841
0.143597
0.102855
0.0831525
0.0628066
0.0490903
0.043762
0.0404502
0.0229874
0.00319799
-0.014934
-0.024484
-0.0128033
0.0345385
0.12637
0.254127
0.380013
0.44457
0.411883
0.31465
0.202795
0.116865
0.0751723
0.0663595
0.0565375
0.0473671
0.0441957
0.0430113
0.0263737
0.00642178
-0.0120285
-0.0208772
-0.00533563
0.0517937
0.162561
0.319102
0.468764
0.522539
0.453943
0.322858
0.188815
0.091713
0.0483025
0.0481058
0.0493576
0.0456254
0.0444605
0.046148
0.0320596
0.0137791
-0.0023301
-0.0073271
0.0141364
0.0789381
0.197308
0.358706
0.517445
0.549579
0.459367
0.31369
0.1724
0.0717078
0.0265485
0.0309212
0.0419267
0.0439079
0.0444636
0.0493586
0.0396692
0.0248914
0.0132222
0.0140398
0.0412496
0.108184
0.219063
0.35769
0.474043
0.496032
0.417822
0.286046
0.154879
0.0584597
0.0121966
0.0167375
0.0348708
0.0422641
0.0440334
0.0520097
0.0482652
0.0387437
0.0327071
0.0395252
0.0701966
0.132825
0.225328
0.329104
0.404542
0.414245
0.353449
0.249256
0.139222
0.0519051
0.0051703
0.00689377
0.0287319
0.040733
0.042932
0.053351
0.0562656
0.0534756
0.0535509
0.0651811
0.096132
0.14978
0.220495
0.291726
0.338265
0.340263
0.294849
0.216424
0.128034
0.0512154
0.00432158
0.00160379
0.0241556
0.0393604
0.0408577
0.0525564
0.0615631
0.066191
0.0724333
0.0872909
0.115767
0.158334
0.208922
0.25539
0.283201
0.281546
0.248138
0.189844
0.119804
0.0533673
0.00767656
0.000505268
0.0214956
0.0382003
0.0376004
0.0491982
0.0622367
0.0733085
0.0850524
0.10179
0.126254
0.157738
0.191567
0.22014
0.235467
0.231716
0.206877
0.163721
0.109331
0.0542097
0.0127859
0.00291285
0.020832
0.0373092
0.0347803
0.0437961
0.057292
0.0715673
0.0864321
0.103306
0.123001
0.144516
0.164986
0.180374
0.186689
0.181063
0.162201
0.131041
0.0915026
0.0502537
0.0176007
0.00812315
0.0222041
0.036741
0.0383511
0.0400606
0.0489442
0.061055
0.0743433
0.0880753
0.101709
0.114241
0.124221
0.129943
0.129946
0.123141
0.109433
0.0895251
0.0656338
0.0411472
0.0214314
0.0156621
0.0255398
0.0365214
0.0443637
0.0389391
0.0410341
0.046226
0.0527143
0.0592768
0.0650653
0.0694402
0.0719
0.0720723
0.069799
0.0650636
0.0581468
0.0496778
0.0405976
0.0322281
0.0258958
0.0253097
0.0306397
0.036668
0.0504242
0.0481712
0.0460072
0.0445644
0.0438351
0.0435164
0.0433099
0.0430254
0.0425652
0.0419065
0.0410735
0.0401198
0.0391128
0.0381285
0.0372453
0.0365212
0.0359801
0.0359095
0.0361435
0.0370759
)
;

boundaryField
{
    movingWall
    {
        type            zeroGradient;
    }
    fixedWalls
    {
        type            zeroGradient;
    }
    frontAndBack
    {
        type            empty;
    }
}


// ************************************************************************* //
