/*--------------------------------*- C++ -*----------------------------------*\
  =========                 |
  \\      /  F ield         | OpenFOAM: The Open Source CFD Toolbox
   \\    /   O peration     | Website:  https://openfoam.org
    \\  /    A nd           | Version:  11
     \\/     M anipulation  |
\*---------------------------------------------------------------------------*/
FoamFile
{
    format      ascii;
    class       volScalarField;
    location    "15";
    object      C;
}
// * * * * * * * * * * * * * * * * * * * * * * * * * * * * * * * * * * * * * //

dimensions      [0 0 0 0 0 0 0];

internalField   nonuniform List<scalar> 
400
(
2.31611e-78
1.02481e-73
4.03469e-69
1.39128e-64
4.11623e-60
1.01586e-55
2.00765e-51
2.97876e-47
2.94937e-43
1.46168e-39
1.46168e-39
2.94916e-43
2.97829e-47
2.00712e-51
1.01547e-55
4.11406e-60
1.39033e-64
4.03123e-69
1.02373e-73
2.3132e-78
1.02481e-73
4.53893e-69
1.78875e-64
6.17421e-60
1.8285e-55
4.51708e-51
8.93597e-47
1.32715e-42
1.31535e-38
6.52524e-35
6.52524e-35
1.31528e-38
1.32698e-42
8.93408e-47
4.51567e-51
1.82772e-55
6.17074e-60
1.78748e-64
4.53498e-69
1.02373e-73
4.03469e-69
1.78875e-64
7.05623e-60
2.438e-55
7.22731e-51
1.78718e-46
3.53901e-42
5.26126e-38
5.21968e-34
2.59196e-30
2.59196e-30
5.21946e-34
5.26075e-38
3.53843e-42
1.78674e-46
7.22483e-51
2.4369e-55
7.05218e-60
1.78748e-64
4.03123e-69
1.39128e-64
6.17421e-60
2.438e-55
8.43185e-51
2.50205e-46
6.19323e-42
1.22761e-37
1.82683e-33
1.8142e-29
9.01779e-26
9.01779e-26
1.81414e-29
1.8267e-33
1.22746e-37
6.19206e-42
2.50138e-46
8.42887e-51
2.4369e-55
6.17074e-60
1.39033e-64
4.11623e-60
1.8285e-55
7.22731e-51
2.50205e-46
7.43186e-42
1.84141e-37
3.65362e-33
5.44243e-29
5.41016e-25
2.69189e-21
2.69189e-21
5.41005e-25
5.44216e-29
3.6533e-33
1.84115e-37
7.4304e-42
2.50138e-46
7.22483e-51
1.82772e-55
4.11406e-60
1.01586e-55
4.51708e-51
1.78718e-46
6.19323e-42
1.84141e-37
4.56701e-33
9.07063e-29
1.3525e-24
1.34582e-20
6.70297e-17
6.70297e-17
1.3458e-20
1.35246e-24
9.07009e-29
4.56658e-33
1.84115e-37
6.19206e-42
1.78674e-46
4.51567e-51
1.01547e-55
2.00765e-51
8.93597e-47
3.53901e-42
1.22761e-37
3.65362e-33
9.07063e-29
1.80333e-24
2.69158e-20
2.68095e-16
1.3366e-12
1.3366e-12
2.68093e-16
2.69153e-20
1.80326e-24
9.07009e-29
3.6533e-33
1.22746e-37
3.53843e-42
8.93408e-47
2.00712e-51
2.97876e-47
1.32715e-42
5.26126e-38
1.82683e-33
5.44243e-29
1.3525e-24
2.69158e-20
4.02135e-16
4.00946e-12
2.00093e-08
2.00093e-08
4.00945e-12
4.02132e-16
2.69153e-20
1.35246e-24
5.44216e-29
1.8267e-33
5.26075e-38
1.32698e-42
2.97829e-47
2.94937e-43
1.31535e-38
5.21968e-34
1.8142e-29
5.41016e-25
1.34582e-20
2.68095e-16
4.00946e-12
4.00159e-08
0.0001999
0.0001999
4.00159e-08
4.00945e-12
2.68093e-16
1.3458e-20
5.41005e-25
1.81414e-29
5.21946e-34
1.31528e-38
2.94916e-43
1.46168e-39
6.52524e-35
2.59196e-30
9.01779e-26
2.69189e-21
6.70297e-17
1.3366e-12
2.00093e-08
0.0001999
0.9996
0.9996
0.0001999
2.00093e-08
1.3366e-12
6.70297e-17
2.69189e-21
9.01779e-26
2.59196e-30
6.52524e-35
1.46168e-39
1.46168e-39
6.52524e-35
2.59196e-30
9.01779e-26
2.69189e-21
6.70297e-17
1.3366e-12
2.00093e-08
0.0001999
0.9996
0.9996
0.0001999
2.00093e-08
1.3366e-12
6.70297e-17
2.69189e-21
9.01779e-26
2.59196e-30
6.52524e-35
1.46168e-39
2.94916e-43
1.31528e-38
5.21946e-34
1.81414e-29
5.41005e-25
1.3458e-20
2.68093e-16
4.00945e-12
4.00159e-08
0.0001999
0.0001999
4.00159e-08
4.00946e-12
2.68095e-16
1.34582e-20
5.41016e-25
1.8142e-29
5.21968e-34
1.31535e-38
2.94937e-43
2.97829e-47
1.32698e-42
5.26075e-38
1.8267e-33
5.44216e-29
1.35246e-24
2.69153e-20
4.02132e-16
4.00945e-12
2.00093e-08
2.00093e-08
4.00946e-12
4.02135e-16
2.69158e-20
1.3525e-24
5.44243e-29
1.82683e-33
5.26126e-38
1.32715e-42
2.97876e-47
2.00712e-51
8.93408e-47
3.53843e-42
1.22746e-37
3.6533e-33
9.07009e-29
1.80326e-24
2.69153e-20
2.68093e-16
1.3366e-12
1.3366e-12
2.68095e-16
2.69158e-20
1.80333e-24
9.07063e-29
3.65362e-33
1.22761e-37
3.53901e-42
8.93597e-47
2.00765e-51
1.01547e-55
4.51567e-51
1.78674e-46
6.19206e-42
1.84115e-37
4.56658e-33
9.07009e-29
1.35246e-24
1.3458e-20
6.70297e-17
6.70297e-17
1.34582e-20
1.3525e-24
9.07063e-29
4.56701e-33
1.84141e-37
6.19323e-42
1.78718e-46
4.51708e-51
1.01586e-55
4.11406e-60
1.82772e-55
7.22483e-51
2.50138e-46
7.4304e-42
1.84115e-37
3.6533e-33
5.44216e-29
5.41005e-25
2.69189e-21
2.69189e-21
5.41016e-25
5.44243e-29
3.65362e-33
1.84141e-37
7.43186e-42
2.50205e-46
7.22731e-51
1.8285e-55
4.11623e-60
1.39033e-64
6.17074e-60
2.4369e-55
8.42887e-51
2.50138e-46
6.19206e-42
1.22746e-37
1.8267e-33
1.81414e-29
9.01779e-26
9.01779e-26
1.8142e-29
1.82683e-33
1.22761e-37
6.19323e-42
2.50205e-46
8.43185e-51
2.438e-55
6.17421e-60
1.39128e-64
4.03123e-69
1.78748e-64
7.05218e-60
2.4369e-55
7.22483e-51
1.78674e-46
3.53843e-42
5.26075e-38
5.21946e-34
2.59196e-30
2.59196e-30
5.21968e-34
5.26126e-38
3.53901e-42
1.78718e-46
7.22731e-51
2.438e-55
7.05623e-60
1.78875e-64
4.03469e-69
1.02373e-73
4.53498e-69
1.78748e-64
6.17074e-60
1.82772e-55
4.51567e-51
8.93408e-47
1.32698e-42
1.31528e-38
6.52524e-35
6.52524e-35
1.31535e-38
1.32715e-42
8.93597e-47
4.51708e-51
1.8285e-55
6.17421e-60
1.78875e-64
4.53893e-69
1.02481e-73
2.3132e-78
1.02373e-73
4.03123e-69
1.39033e-64
4.11406e-60
1.01547e-55
2.00712e-51
2.97829e-47
2.94916e-43
1.46168e-39
1.46168e-39
2.94937e-43
2.97876e-47
2.00765e-51
1.01586e-55
4.11623e-60
1.39128e-64
4.03469e-69
1.02481e-73
2.31611e-78
)
;

boundaryField
{
    movingWall
    {
        type            zeroGradient;
    }
    fixedWalls
    {
        type            zeroGradient;
    }
    frontAndBack
    {
        type            empty;
    }
}


// ************************************************************************* //
