/*--------------------------------*- C++ -*----------------------------------*\
  =========                 |
  \\      /  F ield         | OpenFOAM: The Open Source CFD Toolbox
   \\    /   O peration     | Website:  https://openfoam.org
    \\  /    A nd           | Version:  11
     \\/     M anipulation  |
\*---------------------------------------------------------------------------*/
FoamFile
{
    format      ascii;
    class       volScalarField;
    location    "12.5";
    object      C;
}
// * * * * * * * * * * * * * * * * * * * * * * * * * * * * * * * * * * * * * //

dimensions      [0 0 0 0 0 0 0];

internalField   nonuniform List<scalar> 
400
(
1.02726e-83
8.9413e-79
6.93125e-74
4.71057e-69
2.74937e-64
1.33985e-59
5.23384e-55
1.53637e-50
3.01253e-46
2.95942e-42
2.95942e-42
3.0117e-46
1.53541e-50
5.22842e-55
1.33783e-59
2.74372e-64
4.69804e-69
6.90818e-74
8.90501e-79
1.02228e-83
8.9413e-79
7.79758e-74
6.05638e-69
4.12401e-64
2.41171e-59
1.1776e-54
4.60902e-50
1.35561e-45
2.66332e-41
2.62151e-37
2.62151e-37
2.66274e-41
1.35493e-45
4.60518e-50
1.17615e-54
2.40765e-59
4.11497e-64
6.03968e-69
7.77121e-74
8.90501e-79
6.93125e-74
6.05638e-69
4.71315e-64
3.21561e-59
1.88415e-54
9.218e-50
3.61492e-45
1.06531e-40
2.09711e-36
2.06826e-32
2.06826e-32
2.09676e-36
1.06491e-40
3.61257e-45
9.20905e-50
1.88162e-54
3.20993e-59
4.7026e-64
6.03968e-69
6.90818e-74
4.71057e-69
4.12401e-64
3.21561e-59
2.19817e-54
1.29052e-49
6.32609e-45
2.48571e-40
7.33976e-36
1.44771e-31
1.43062e-27
1.43062e-27
1.44754e-31
7.3377e-36
2.48449e-40
6.3214e-45
1.28918e-49
2.19514e-54
3.20993e-59
4.11497e-64
4.69804e-69
2.74937e-64
2.41171e-59
1.88415e-54
1.29052e-49
7.5913e-45
3.72855e-40
1.46794e-35
4.34307e-31
8.58329e-27
8.49874e-23
8.49874e-23
8.58261e-27
4.34222e-31
1.46743e-35
3.72653e-40
7.58543e-45
1.28918e-49
1.88162e-54
2.40765e-59
2.74372e-64
1.33985e-59
1.1776e-54
9.218e-50
6.32609e-45
3.72855e-40
1.83493e-35
7.23841e-31
2.14579e-26
4.24917e-22
4.21566e-18
4.21566e-18
4.24897e-22
2.14552e-26
7.23671e-31
1.83424e-35
3.72653e-40
6.3214e-45
9.20905e-50
1.17615e-54
1.33783e-59
5.23384e-55
4.60902e-50
3.61492e-45
2.48571e-40
1.46794e-35
7.23841e-31
2.86105e-26
8.49824e-22
1.68619e-17
1.67622e-13
1.67622e-13
1.68615e-17
8.49763e-22
2.86064e-26
7.23671e-31
1.46743e-35
2.48449e-40
3.61257e-45
4.60518e-50
5.22842e-55
1.53637e-50
1.35561e-45
1.06531e-40
7.33976e-36
4.34307e-31
2.14579e-26
8.49824e-22
2.52926e-17
5.02844e-13
5.00866e-09
5.00866e-09
5.0284e-13
2.52918e-17
8.49763e-22
2.14552e-26
4.34222e-31
7.3377e-36
1.06491e-40
1.35493e-45
1.53541e-50
3.01253e-46
2.66332e-41
2.09711e-36
1.44771e-31
8.58329e-27
4.24917e-22
1.68619e-17
5.02844e-13
1.0017e-08
9.9975e-05
9.9975e-05
1.0017e-08
5.0284e-13
1.68615e-17
4.24897e-22
8.58261e-27
1.44754e-31
2.09676e-36
2.66274e-41
3.0117e-46
2.95942e-42
2.62151e-37
2.06826e-32
1.43062e-27
8.49874e-23
4.21566e-18
1.67622e-13
5.00866e-09
9.9975e-05
0.9998
0.9998
9.9975e-05
5.00866e-09
1.67622e-13
4.21566e-18
8.49874e-23
1.43062e-27
2.06826e-32
2.62151e-37
2.95942e-42
2.95942e-42
2.62151e-37
2.06826e-32
1.43062e-27
8.49874e-23
4.21566e-18
1.67622e-13
5.00866e-09
9.9975e-05
0.9998
0.9998
9.9975e-05
5.00866e-09
1.67622e-13
4.21566e-18
8.49874e-23
1.43062e-27
2.06826e-32
2.62151e-37
2.95942e-42
3.0117e-46
2.66274e-41
2.09676e-36
1.44754e-31
8.58261e-27
4.24897e-22
1.68615e-17
5.0284e-13
1.0017e-08
9.9975e-05
9.9975e-05
1.0017e-08
5.02844e-13
1.68619e-17
4.24917e-22
8.58329e-27
1.44771e-31
2.09711e-36
2.66332e-41
3.01253e-46
1.53541e-50
1.35493e-45
1.06491e-40
7.3377e-36
4.34222e-31
2.14552e-26
8.49763e-22
2.52918e-17
5.0284e-13
5.00866e-09
5.00866e-09
5.02844e-13
2.52926e-17
8.49824e-22
2.14579e-26
4.34307e-31
7.33976e-36
1.06531e-40
1.35561e-45
1.53637e-50
5.22842e-55
4.60518e-50
3.61257e-45
2.48449e-40
1.46743e-35
7.23671e-31
2.86064e-26
8.49763e-22
1.68615e-17
1.67622e-13
1.67622e-13
1.68619e-17
8.49824e-22
2.86105e-26
7.23841e-31
1.46794e-35
2.48571e-40
3.61492e-45
4.60902e-50
5.23384e-55
1.33783e-59
1.17615e-54
9.20905e-50
6.3214e-45
3.72653e-40
1.83424e-35
7.23671e-31
2.14552e-26
4.24897e-22
4.21566e-18
4.21566e-18
4.24917e-22
2.14579e-26
7.23841e-31
1.83493e-35
3.72855e-40
6.32609e-45
9.218e-50
1.1776e-54
1.33985e-59
2.74372e-64
2.40765e-59
1.88162e-54
1.28918e-49
7.58543e-45
3.72653e-40
1.46743e-35
4.34222e-31
8.58261e-27
8.49874e-23
8.49874e-23
8.58329e-27
4.34307e-31
1.46794e-35
3.72855e-40
7.5913e-45
1.29052e-49
1.88415e-54
2.41171e-59
2.74937e-64
4.69804e-69
4.11497e-64
3.20993e-59
2.19514e-54
1.28918e-49
6.3214e-45
2.48449e-40
7.3377e-36
1.44754e-31
1.43062e-27
1.43062e-27
1.44771e-31
7.33976e-36
2.48571e-40
6.32609e-45
1.29052e-49
2.19817e-54
3.21561e-59
4.12401e-64
4.71057e-69
6.90818e-74
6.03968e-69
4.7026e-64
3.20993e-59
1.88162e-54
9.20905e-50
3.61257e-45
1.06491e-40
2.09676e-36
2.06826e-32
2.06826e-32
2.09711e-36
1.06531e-40
3.61492e-45
9.218e-50
1.88415e-54
3.21561e-59
4.71315e-64
6.05638e-69
6.93125e-74
8.90501e-79
7.77121e-74
6.03968e-69
4.11497e-64
2.40765e-59
1.17615e-54
4.60518e-50
1.35493e-45
2.66274e-41
2.62151e-37
2.62151e-37
2.66332e-41
1.35561e-45
4.60902e-50
1.1776e-54
2.41171e-59
4.12401e-64
6.05638e-69
7.79758e-74
8.9413e-79
1.02228e-83
8.90501e-79
6.90818e-74
4.69804e-69
2.74372e-64
1.33783e-59
5.22842e-55
1.53541e-50
3.0117e-46
2.95942e-42
2.95942e-42
3.01253e-46
1.53637e-50
5.23384e-55
1.33985e-59
2.74937e-64
4.71057e-69
6.93125e-74
8.9413e-79
1.02726e-83
)
;

boundaryField
{
    movingWall
    {
        type            zeroGradient;
    }
    fixedWalls
    {
        type            zeroGradient;
    }
    frontAndBack
    {
        type            empty;
    }
}


// ************************************************************************* //
