/*--------------------------------*- C++ -*----------------------------------*\
  =========                 |
  \\      /  F ield         | OpenFOAM: The Open Source CFD Toolbox
   \\    /   O peration     | Website:  https://openfoam.org
    \\  /    A nd           | Version:  11
     \\/     M anipulation  |
\*---------------------------------------------------------------------------*/
FoamFile
{
    format      ascii;
    class       volScalarField;
    location    "17.25";
    object      C;
}
// * * * * * * * * * * * * * * * * * * * * * * * * * * * * * * * * * * * * * //

dimensions      [0 0 0 0 0 0 0];

internalField   nonuniform List<scalar> 
400
(
0.0218851
0.0312835
0.045524
0.0389131
0.0377205
0.0394548
0.0415803
0.0437548
0.0457338
0.0474142
0.0487504
0.0497194
0.0502974
0.0504332
0.0501896
0.0495858
0.0487344
0.0477146
0.0466298
0.0455349
0.0349809
0.0406357
0.0418787
0.0387476
0.0418913
0.0478426
0.0546914
0.0613919
0.0670473
0.0710751
0.0731855
0.0732998
0.0715339
0.0683061
0.0640132
0.0591607
0.0544583
0.0506095
0.0482704
0.0476508
0.0403203
0.041984
0.0397005
0.0416882
0.0506514
0.0629827
0.0764956
0.0891337
0.0992051
0.10557
0.107551
0.105054
0.0985793
0.0892171
0.0782282
0.0670803
0.057219
0.0498225
0.0455817
0.0443343
0.0421273
0.0408665
0.0391346
0.0461536
0.0610545
0.0804507
0.101693
0.121775
0.13775
0.14721
0.148599
0.141771
0.12806
0.109983
0.0904646
0.0724616
0.0581589
0.0485691
0.0436408
0.0424065
0.042617
0.0393499
0.0388349
0.0495993
0.0693967
0.0952895
0.124395
0.152825
0.176089
0.189939
0.191378
0.179699
0.156946
0.127573
0.0974818
0.0721653
0.0547034
0.0450655
0.0412755
0.0410564
0.0427479
0.0378744
0.0376653
0.050035
0.0724544
0.102796
0.138679
0.176133
0.20952
0.23225
0.238293
0.224404
0.192084
0.148456
0.104319
0.069379
0.0483329
0.0397494
0.038483
0.0399851
0.042879
0.0365279
0.0352224
0.0466336
0.0684957
0.0999852
0.140464
0.187528
0.235545
0.275003
0.294054
0.283294
0.241828
0.180959
0.118687
0.0701937
0.0426385
0.0340315
0.0356015
0.0391296
0.0431641
0.0354699
0.0317861
0.0398607
0.057882
0.0867174
0.128742
0.185091
0.251851
0.316426
0.357948
0.35609
0.305742
0.226053
0.143816
0.0790036
0.0411018
0.0294955
0.0330146
0.0384619
0.0436228
0.0349052
0.0280978
0.0312108
0.0429247
0.0658213
0.105847
0.168931
0.254737
0.348988
0.420033
0.430987
0.371795
0.275396
0.176134
0.0960145
0.0455021
0.0273846
0.0310795
0.0379808
0.04425
0.0350929
0.025032
0.022685
0.0271018
0.0421558
0.076735
0.141104
0.239637
0.36007
0.460977
0.483418
0.420001
0.31589
0.208079
0.117852
0.0554562
0.0282519
0.0300229
0.0376823
0.0449506
0.0362058
0.0235689
0.0161736
0.0138371
0.0209916
0.0479746
0.107117
0.204886
0.330499
0.449037
0.482127
0.430708
0.335886
0.232149
0.139699
0.0690253
0.0320163
0.0299735
0.0375664
0.0456626
0.0382058
0.0243783
0.0131359
0.00569178
0.00645999
0.0255405
0.0748392
0.160214
0.271324
0.37389
0.419876
0.398491
0.33033
0.243385
0.157254
0.0834791
0.0380857
0.030939
0.0376238
0.0463116
0.0408967
0.0276826
0.0144152
0.00402285
0.000730413
0.0130911
0.0508279
0.118052
0.206033
0.289224
0.338929
0.341798
0.303752
0.240662
0.167429
0.095921
0.0454785
0.0328784
0.0378508
0.0467648
0.0438665
0.0330909
0.0200146
0.00889123
0.0038747
0.0114534
0.0384785
0.0873982
0.151986
0.216515
0.263215
0.280343
0.265983
0.225993
0.16889
0.104479
0.0528028
0.0356847
0.0382422
0.0467863
0.0465046
0.0395969
0.0290072
0.019238
0.0143859
0.0191041
0.0376313
0.0712034
0.115972
0.163195
0.20224
0.224271
0.224514
0.202706
0.161627
0.1077
0.0588952
0.0389451
0.0388107
0.045955
0.0481134
0.0456748
0.0393885
0.0328427
0.0296634
0.0331267
0.0456302
0.0676594
0.0970443
0.129207
0.158189
0.178179
0.184471
0.174279
0.146741
0.105041
0.062889
0.0422092
0.0395291
0.0432383
0.0477141
0.0495587
0.0483289
0.0462137
0.0458158
0.0492796
0.0578925
0.071778
0.0897849
0.109639
0.128297
0.142282
0.148243
0.143466
0.125884
0.0966605
0.0640821
0.0449772
0.0403451
0.0401975
0.045633
0.0501098
0.052938
0.0549685
0.057496
0.0615927
0.0678214
0.0761517
0.0859953
0.0963225
0.105712
0.112513
0.114813
0.111341
0.100574
0.0830198
0.0617119
0.0466309
0.041177
0.0399566
0.0432859
0.0473403
0.0511979
0.0547916
0.0583068
0.0619419
0.0657749
0.0697211
0.0735482
0.0769322
0.0794375
0.0806423
0.0800057
0.077446
0.0722077
0.0647749
0.054897
0.0464132
0.0419116
0.0426987
0.0431711
0.0438159
0.044705
0.0457456
0.0467952
0.0477523
0.0485649
0.0491941
0.0496184
0.0498246
0.0498055
0.0495699
0.0491098
0.0484603
0.0476121
0.0466408
0.0454166
0.0442031
0.042362
)
;

boundaryField
{
    movingWall
    {
        type            zeroGradient;
    }
    fixedWalls
    {
        type            zeroGradient;
    }
    frontAndBack
    {
        type            empty;
    }
}


// ************************************************************************* //
