/*--------------------------------*- C++ -*----------------------------------*\
  =========                 |
  \\      /  F ield         | OpenFOAM: The Open Source CFD Toolbox
   \\    /   O peration     | Website:  https://openfoam.org
    \\  /    A nd           | Version:  11
     \\/     M anipulation  |
\*---------------------------------------------------------------------------*/
FoamFile
{
    format      ascii;
    class       volScalarField;
    location    "15.375";
    object      C;
}
// * * * * * * * * * * * * * * * * * * * * * * * * * * * * * * * * * * * * * //

dimensions      [0 0 0 0 0 0 0];

internalField   nonuniform List<scalar> 
400
(
0.0165921
0.0274064
0.0378346
0.0339309
0.0410987
0.0473533
0.0514622
0.0540629
0.0554551
0.0559164
0.0556734
0.0549075
0.053769
0.0523937
0.0509636
0.0496302
0.0485506
0.0478682
0.0476672
0.047901
0.0313523
0.0342031
0.0369422
0.0421865
0.0542479
0.0644236
0.0714818
0.075091
0.0753398
0.0727458
0.0680686
0.0621346
0.0558067
0.0499559
0.0451407
0.0418254
0.0402196
0.0402711
0.0415872
0.0434301
0.0353469
0.0361416
0.0419446
0.0568315
0.0753846
0.0906263
0.100559
0.104125
0.101413
0.0933755
0.0814743
0.067601
0.05384
0.0420883
0.0336935
0.029378
0.0290194
0.0316166
0.0353964
0.0382668
0.036249
0.0377217
0.0502172
0.0740142
0.0998627
0.12152
0.135986
0.141123
0.136165
0.121978
0.100886
0.0764776
0.052812
0.0334072
0.020632
0.0154667
0.0172475
0.0237701
0.0316055
0.0368615
0.0363043
0.0392379
0.0582297
0.0897444
0.123226
0.152676
0.173967
0.183467
0.179117
0.161259
0.13268
0.0982132
0.0635979
0.034349
0.0146393
0.00609434
0.00775941
0.0167405
0.0282929
0.036088
0.0361823
0.0399298
0.0633689
0.100506
0.14057
0.177953
0.208155
0.226847
0.230783
0.218387
0.190208
0.14976
0.103555
0.0606163
0.0287164
0.010944
0.00653922
0.0132518
0.0262409
0.0358775
0.0360839
0.0393765
0.0643131
0.103836
0.147484
0.190704
0.230376
0.263513
0.286396
0.293414
0.278156
0.238182
0.179703
0.118314
0.0683988
0.0349447
0.0171765
0.0149876
0.0257977
0.0360614
0.03614
0.03762
0.0609265
0.0989344
0.141618
0.186042
0.232299
0.281446
0.331411
0.371786
0.384014
0.352625
0.281569
0.198825
0.128111
0.0757288
0.0396224
0.0225372
0.027157
0.0365779
0.0364175
0.0351215
0.0540627
0.0868487
0.123719
0.163183
0.209142
0.268627
0.344827
0.425889
0.478734
0.464923
0.383586
0.282797
0.19452
0.125236
0.0703965
0.0351478
0.0302785
0.0373847
0.0370273
0.0324739
0.0451747
0.0701297
0.0975427
0.1266
0.163741
0.221145
0.309762
0.424225
0.521531
0.530963
0.451605
0.347228
0.2523
0.173389
0.104206
0.0512347
0.0348923
0.0384241
0.0378853
0.03053
0.0360208
0.0517986
0.0683021
0.0843952
0.10713
0.150669
0.230092
0.345849
0.469641
0.505622
0.456204
0.373303
0.288777
0.211184
0.135518
0.0688175
0.0406622
0.0396519
0.0389616
0.0298652
0.0284374
0.0350192
0.0412634
0.0452418
0.0531169
0.0782314
0.135749
0.229037
0.332527
0.393107
0.394641
0.354825
0.297277
0.232911
0.159703
0.0858182
0.0471572
0.0410154
0.0402367
0.0307528
0.0238862
0.0224533
0.0205298
0.0157012
0.0124749
0.0217162
0.0562241
0.120888
0.200354
0.267094
0.301869
0.303036
0.279194
0.236629
0.174072
0.100223
0.0538866
0.0424654
0.0416479
0.0331118
0.0231523
0.0158429
0.00839484
-0.0012228
-0.0101847
-0.010736
0.00659587
0.0468259
0.103921
0.163719
0.211551
0.238752
0.243288
0.224339
0.177959
0.110271
0.0601227
0.0439463
0.0430448
0.0365166
0.0261442
0.0157881
0.00547505
-0.00561119
-0.0157765
-0.0201913
-0.012727
0.0106611
0.0488388
0.0954074
0.141581
0.178902
0.200878
0.201138
0.171994
0.114967
0.0650693
0.0454178
0.0442645
0.0402543
0.0317745
0.0214694
0.0109191
0.000667873
-0.00800833
-0.01241
-0.00912949
0.00445387
0.0288358
0.0617007
0.0987659
0.134344
0.161934
0.173081
0.158149
0.11396
0.0681231
0.0467897
0.0438828
0.0431452
0.0382865
0.0307806
0.0225287
0.0148526
0.00896486
0.00636706
0.00870282
0.0173327
0.0328266
0.0546208
0.0807281
0.108044
0.131853
0.144783
0.13854
0.107105
0.0686527
0.0479429
0.0401053
0.0437561
0.0434623
0.0405104
0.0365429
0.032895
0.0306002
0.030533
0.033402
0.0397307
0.0497065
0.063102
0.0789159
0.0951978
0.109454
0.117246
0.114213
0.0940478
0.0660452
0.0487572
0.036922
0.0424927
0.0451814
0.0463839
0.0468914
0.0474007
0.0484404
0.0503651
0.0533695
0.0575092
0.0626936
0.0686687
0.0750169
0.080874
0.0855771
0.0871162
0.0848052
0.074405
0.0597323
0.0490945
0.0387022
0.0405596
0.0423826
0.043971
0.045347
0.0465757
0.0477195
0.0488205
0.0498878
0.0509092
0.0518563
0.0526876
0.0533669
0.0538271
0.0540436
0.0539384
0.0535706
0.0525076
0.0511822
0.0489021
)
;

boundaryField
{
    movingWall
    {
        type            zeroGradient;
    }
    fixedWalls
    {
        type            zeroGradient;
    }
    frontAndBack
    {
        type            empty;
    }
}


// ************************************************************************* //
