/*--------------------------------*- C++ -*----------------------------------*\
  =========                 |
  \\      /  F ield         | OpenFOAM: The Open Source CFD Toolbox
   \\    /   O peration     | Website:  https://openfoam.org
    \\  /    A nd           | Version:  11
     \\/     M anipulation  |
\*---------------------------------------------------------------------------*/
FoamFile
{
    format      ascii;
    class       volScalarField;
    location    "10.625";
    object      C;
}
// * * * * * * * * * * * * * * * * * * * * * * * * * * * * * * * * * * * * * //

dimensions      [0 0 0 0 0 0 0];

internalField   nonuniform List<scalar> 
400
(
-0.000787092
0.00454476
0.110753
0.0304052
-0.0114717
0.0027429
-0.000474711
2.78772e-05
1.87789e-05
-1.70619e-05
3.38534e-05
0.00011592
0.000324704
0.000728022
0.00141718
0.00241246
0.00352011
0.00400774
0.00258154
-0.00149142
0.00943288
0.0784794
0.070395
0.00368135
-0.00562645
0.00196949
-0.000526652
5.37329e-05
-9.56221e-06
3.65307e-05
0.000144818
0.000319084
0.000772841
0.00216218
0.00600116
0.0146986
0.0303602
0.0514773
0.0683622
0.0651047
0.0483587
0.093594
0.0338078
-0.00721675
-0.000923875
0.0011217
-0.000345799
0.000126485
0.000127151
0.000300186
0.000231524
-0.000525555
-0.00223012
-0.00392596
-0.00163927
0.0125973
0.0482971
0.107663
0.172741
0.206707
0.0723065
0.0888183
0.0118293
-0.00910741
0.000879075
0.000172026
-0.000187978
0.000432788
0.000700779
0.00109852
0.000722831
-0.00176427
-0.00755219
-0.015767
-0.0205416
-0.00854341
0.0382852
0.126462
0.225268
0.275739
0.085999
0.0836507
0.00134993
-0.00765452
0.00167151
-0.000952737
-0.00110069
-0.0002326
0.000472615
0.000664216
-0.00145142
-0.00740251
-0.0169781
-0.0272594
-0.0325856
-0.0199032
0.03296
0.13499
0.233933
0.239306
0.0948167
0.083679
-0.00315238
-0.00496817
0.00537747
0.00247015
0.00225461
0.00274186
0.00197749
-0.00154385
-0.00994532
-0.0218373
-0.0299608
-0.0272924
-0.01506
0.00883164
0.0644786
0.166225
0.241687
0.16108
0.101566
0.0905333
-0.00700701
-0.00775939
0.00553698
0.00368217
0.00425815
0.00629668
0.00483388
-0.00476633
-0.0217516
-0.0324422
-0.0171077
0.0211536
0.0656604
0.101787
0.146645
0.226048
0.258938
0.0894272
0.106196
0.107631
-0.00948061
-0.0218787
-0.00922779
-0.0139817
-0.0198781
-0.0235559
-0.0283881
-0.0366864
-0.036562
0.000595667
0.0840005
0.166832
0.230092
0.257708
0.269885
0.304288
0.274688
0.0404844
0.106531
0.138897
0.00185547
-0.0360564
-0.0267045
-0.0270337
-0.0294691
-0.0356296
-0.0533572
-0.0631733
-0.00513834
0.156925
0.316549
0.40271
0.43565
0.424744
0.39316
0.378185
0.275023
0.0127928
0.0970863
0.184629
0.0466815
-0.0198364
-0.00754751
0.0216912
0.0645274
0.118787
0.179608
0.243169
0.327835
0.518977
0.613124
0.611046
0.568456
0.514106
0.458576
0.418707
0.253337
-0.000368831
0.076384
0.226284
0.135692
0.0577259
0.0792408
0.154243
0.260756
0.387023
0.530131
0.70577
0.965115
0.891993
0.748972
0.620157
0.521945
0.46151
0.426836
0.402642
0.210066
-0.0055632
0.0468752
0.238423
0.240385
0.190913
0.222429
0.321809
0.448892
0.571266
0.665406
0.741939
0.779341
0.678517
0.510732
0.377297
0.30675
0.28798
0.307389
0.326721
0.152888
-0.00696445
0.0160292
0.205304
0.302753
0.318154
0.36009
0.441624
0.522526
0.565551
0.542356
0.462343
0.3219
0.176055
0.0914873
0.064956
0.0679217
0.0937528
0.154979
0.213863
0.0924338
-0.00688236
-0.00539543
0.135955
0.280387
0.359796
0.412382
0.453084
0.460127
0.417404
0.321309
0.192751
0.062646
-0.028192
-0.0638106
-0.0611074
-0.0447135
-0.0208267
0.0347703
0.10173
0.0396012
-0.00610012
-0.0108826
0.0615994
0.186328
0.28735
0.342562
0.351494
0.311729
0.232738
0.134914
0.0434928
-0.0178485
-0.0403232
-0.0381038
-0.030797
-0.0301831
-0.0352282
-0.0188814
0.0231891
0.00432965
-0.0047308
-0.00528498
0.0131149
0.0805418
0.153954
0.195179
0.192171
0.15017
0.0875738
0.0274117
-0.0132936
-0.0283408
-0.0232304
-0.0100353
0.000749328
0.00259824
-0.00848292
-0.0192579
-0.01012
-0.0100747
-0.00284082
-0.000181546
-0.0035502
0.01469
0.043899
0.0616424
0.0577131
0.0361498
0.00887923
-0.0121043
-0.020806
-0.0184151
-0.0107168
-0.00316107
0.00228469
0.00622342
0.00527702
-0.00390786
-0.0103107
-0.00873698
-0.000896026
0.000447661
-0.00318927
-0.00484318
-0.00237731
-0.000786723
-0.00314277
-0.00804404
-0.012131
-0.0129943
-0.0104863
-0.00626339
-0.00237928
-0.000128982
0.0004067
0.000825962
0.00257691
0.00269238
-0.000870194
-0.00200622
0.000508354
0.000114956
-0.000435471
-0.00288583
-0.00529316
-0.00692023
-0.00755706
-0.00708861
-0.0056243
-0.00360318
-0.00161763
-0.000142278
0.000636718
0.000809344
0.000621084
4.58835e-05
-0.000712581
0.000119845
0.00161191
0.00115443
0.000946201
-1.50618e-05
9.04039e-05
-2.67034e-05
-0.000357597
-0.000639737
-0.00067048
-0.000449803
-0.000106556
0.000215117
0.000422548
0.000493829
0.000458234
0.000366152
0.000258781
0.00016256
8.23566e-05
6.07609e-05
-9.68216e-05
-0.000370503
0.000529213
)
;

boundaryField
{
    movingWall
    {
        type            zeroGradient;
    }
    fixedWalls
    {
        type            zeroGradient;
    }
    frontAndBack
    {
        type            empty;
    }
}


// ************************************************************************* //
