/*--------------------------------*- C++ -*----------------------------------*\
  =========                 |
  \\      /  F ield         | OpenFOAM: The Open Source CFD Toolbox
   \\    /   O peration     | Website:  https://openfoam.org
    \\  /    A nd           | Version:  11
     \\/     M anipulation  |
\*---------------------------------------------------------------------------*/
FoamFile
{
    format      ascii;
    class       volScalarField;
    location    "17.625";
    object      C;
}
// * * * * * * * * * * * * * * * * * * * * * * * * * * * * * * * * * * * * * //

dimensions      [0 0 0 0 0 0 0];

internalField   nonuniform List<scalar> 
400
(
0.0229505
0.0318472
0.0412238
0.0437722
0.0486418
0.0494598
0.0491524
0.0482941
0.0471776
0.045969
0.0447691
0.0436472
0.0426668
0.0419307
0.0414467
0.0412496
0.0413186
0.041668
0.04231
0.0432581
0.0350442
0.0381687
0.0439661
0.0486746
0.0522099
0.052035
0.05015
0.0471188
0.0435928
0.0401209
0.0371271
0.0349044
0.0336364
0.0333304
0.0338676
0.03504
0.0365132
0.0379273
0.0389476
0.039424
0.0385234
0.0423263
0.0491667
0.0555547
0.0584447
0.0573796
0.0537538
0.0484422
0.0425422
0.037033
0.0326821
0.0299891
0.0291523
0.0299743
0.0319742
0.034557
0.0371278
0.0391712
0.0403273
0.0405451
0.0400339
0.0461059
0.0560058
0.0646529
0.0686767
0.0683684
0.0646858
0.0586568
0.051734
0.0454364
0.0409164
0.0387334
0.0386849
0.0399284
0.0415132
0.0426888
0.0431756
0.0431296
0.0427719
0.0422172
0.0408689
0.0498189
0.0638789
0.0763398
0.0841169
0.0875694
0.0872685
0.0842963
0.0803778
0.0771704
0.075477
0.0750896
0.0748564
0.0735295
0.070187
0.0645429
0.0574578
0.0508253
0.0461939
0.0436797
0.0413122
0.0530816
0.0719811
0.0899905
0.104304
0.115199
0.123103
0.129177
0.134849
0.140461
0.144713
0.145563
0.141282
0.131827
0.117713
0.0996949
0.0798569
0.0622902
0.0506607
0.0450942
0.0414515
0.0554581
0.0792367
0.103826
0.126551
0.147777
0.168244
0.189354
0.211405
0.231383
0.243478
0.242651
0.227984
0.203775
0.174241
0.141271
0.106858
0.0762665
0.0558347
0.0464372
0.0413249
0.0565283
0.084467
0.115406
0.146536
0.178427
0.212607
0.251259
0.293561
0.331887
0.353241
0.347399
0.315823
0.272023
0.225713
0.179474
0.13316
0.0907801
0.0612804
0.0477029
0.0410236
0.0561272
0.0866804
0.122372
0.159758
0.199275
0.243246
0.295383
0.355453
0.412666
0.445195
0.433065
0.381933
0.31946
0.259937
0.205891
0.153808
0.103834
0.0665174
0.0488612
0.0406724
0.0541859
0.0853351
0.123226
0.163183
0.204824
0.250372
0.304801
0.370729
0.439852
0.484047
0.466898
0.403977
0.333011
0.269567
0.215782
0.165515
0.113851
0.0711764
0.0498993
0.0403825
0.0510303
0.0802061
0.117318
0.155877
0.193917
0.232528
0.276493
0.33022
0.38914
0.43503
0.422341
0.368741
0.30734
0.25304
0.208483
0.167125
0.119849
0.074922
0.0507932
0.0402605
0.0472487
0.0719137
0.105315
0.139182
0.169617
0.19614
0.222352
0.253163
0.287794
0.313164
0.310931
0.284674
0.248628
0.214759
0.186891
0.159459
0.121437
0.0775638
0.0515381
0.0404336
0.0435407
0.0617247
0.0889211
0.116029
0.137488
0.151446
0.160231
0.168661
0.179502
0.188488
0.190595
0.184786
0.174414
0.16426
0.156036
0.145001
0.118864
0.078868
0.0521059
0.0410502
0.0406807
0.0514908
0.0707527
0.090139
0.103367
0.107764
0.104693
0.0984998
0.0938121
0.0924477
0.0944569
0.099069
0.105522
0.113734
0.12251
0.126673
0.112732
0.0784908
0.0524703
0.0422566
0.0393571
0.0432209
0.0539282
0.0654427
0.0720629
0.0709712
0.0628212
0.0510493
0.0402039
0.0340668
0.0345661
0.0420638
0.0555172
0.0733194
0.0925736
0.107551
0.104015
0.0764631
0.0525974
0.0441193
0.0398819
0.0385174
0.0415785
0.0458641
0.0474054
0.0439318
0.0356166
0.0247027
0.0144853
0.00823005
0.00809666
0.0150386
0.0288394
0.0483313
0.070628
0.0903659
0.0937607
0.072982
0.0524663
0.0463639
0.0421195
0.0380233
0.0358767
0.0347376
0.0327143
0.028545
0.0222284
0.0149201
0.00844081
0.00472335
0.00537475
0.0112051
0.0225346
0.0388934
0.0582993
0.0767791
0.082794
0.0681903
0.0520587
0.046441
0.0443703
0.0405911
0.0367534
0.0332522
0.0297842
0.0260596
0.0221656
0.0185802
0.016047
0.0153557
0.0172607
0.0221936
0.0303346
0.041429
0.0543752
0.0670025
0.0715664
0.0623107
0.0513929
0.0448814
0.0461615
0.0447116
0.0424507
0.0400292
0.037783
0.0358938
0.0345043
0.0337643
0.0338378
0.034864
0.0369706
0.0402184
0.0444864
0.049546
0.0547149
0.0594117
0.0601941
0.0556297
0.0505006
0.0417714
0.0425232
0.0432829
0.0437864
0.0440353
0.044157
0.0442724
0.0444544
0.0447396
0.0451357
0.0456347
0.0462177
0.0468604
0.0475291
0.0481882
0.0487917
0.0493343
0.0495678
0.0495228
0.0495897
)
;

boundaryField
{
    movingWall
    {
        type            zeroGradient;
    }
    fixedWalls
    {
        type            zeroGradient;
    }
    frontAndBack
    {
        type            empty;
    }
}


// ************************************************************************* //
