/*--------------------------------*- C++ -*----------------------------------*\
  =========                 |
  \\      /  F ield         | OpenFOAM: The Open Source CFD Toolbox
   \\    /   O peration     | Website:  https://openfoam.org
    \\  /    A nd           | Version:  11
     \\/     M anipulation  |
\*---------------------------------------------------------------------------*/
FoamFile
{
    format      ascii;
    class       volScalarField;
    location    "11.5";
    object      C;
}
// * * * * * * * * * * * * * * * * * * * * * * * * * * * * * * * * * * * * * //

dimensions      [0 0 0 0 0 0 0];

internalField   nonuniform List<scalar> 
400
(
0.00279248
0.0138066
0.0451015
0.100392
0.0685371
0.0318182
0.018797
0.0133898
0.0110164
0.00980616
0.00895993
0.00819228
0.00743381
0.00676577
0.00619044
0.00583534
0.00586407
0.00666947
0.00885618
0.012952
0.0190492
0.035233
0.0773416
0.0786445
0.0352804
0.00782402
-0.000189517
-0.00213672
-0.00182358
-0.00113419
-0.000780303
-0.000944214
-0.00164027
-0.00288038
-0.00420778
-0.00526561
-0.00580384
-0.00578096
-0.00545916
-0.00523711
0.0268523
0.0633538
0.0869018
0.0545199
0.0124681
-0.00405956
-0.00615283
-0.0045012
-0.00209358
-0.000209189
0.00058132
-5.46622e-05
-0.00198864
-0.00444762
-0.00650182
-0.00719688
-0.00614156
-0.00369744
-0.00107013
4.95789e-06
0.0355383
0.0850114
0.0926765
0.0496553
0.0159825
0.00529709
0.000695982
-0.00440207
-0.0090151
-0.0116863
-0.012525
-0.0126364
-0.0126129
-0.0124339
-0.0115444
-0.00909885
-0.00478715
0.000882999
0.00649241
0.00948089
0.0419875
0.103628
0.110219
0.0743357
0.0535667
0.0454365
0.0310046
0.00870416
-0.0141638
-0.0309541
-0.0387429
-0.0376283
-0.0291623
-0.0175279
-0.00673826
0.00154817
0.0078471
0.01342
0.0189163
0.0220075
0.0450705
0.120886
0.141838
0.126571
0.125309
0.124673
0.104216
0.064993
0.0186687
-0.0217922
-0.0452419
-0.0454019
-0.0250489
0.00384719
0.0278316
0.0393372
0.0403335
0.0372218
0.0358326
0.0344564
0.0449272
0.134796
0.179732
0.192294
0.215792
0.232614
0.222732
0.187117
0.135955
0.0830227
0.0453818
0.0366798
0.0542664
0.0869375
0.11244
0.114967
0.0979192
0.074434
0.0577136
0.046181
0.0417436
0.141432
0.211868
0.250402
0.295562
0.333612
0.350812
0.350369
0.337963
0.317146
0.291203
0.264175
0.239805
0.240835
0.24241
0.220281
0.175099
0.12278
0.0836926
0.056741
0.0364878
0.13792
0.227646
0.282164
0.335706
0.384313
0.425814
0.471557
0.529664
0.591928
0.623028
0.576624
0.473129
0.414298
0.374755
0.324121
0.254509
0.175576
0.11172
0.0658722
0.0301436
0.123164
0.222016
0.279145
0.323722
0.36323
0.405508
0.464254
0.547128
0.657379
0.767119
0.753692
0.60669
0.511212
0.446566
0.385501
0.312858
0.223421
0.138956
0.0733829
0.0245712
0.0991068
0.194827
0.244872
0.268258
0.283224
0.303792
0.337992
0.380816
0.421572
0.539586
0.579291
0.518869
0.46243
0.417382
0.377365
0.331461
0.256966
0.162182
0.0791192
0.0209331
0.0710615
0.15186
0.19065
0.191889
0.180289
0.174015
0.175755
0.172173
0.145977
0.162877
0.214215
0.266638
0.294831
0.30096
0.303654
0.305318
0.269707
0.178581
0.0830366
0.019925
0.0450872
0.10291
0.130191
0.117818
0.0898306
0.0668627
0.0517327
0.0321897
-0.00350083
-0.0198398
0.00744901
0.0635699
0.117432
0.156232
0.195264
0.245838
0.260268
0.185745
0.0850857
0.0218279
0.0262277
0.058661
0.0754548
0.0603284
0.0302712
0.00465975
-0.010905
-0.0234226
-0.0401511
-0.0502446
-0.0423889
-0.0173061
0.0141958
0.0457223
0.0926065
0.172999
0.232583
0.182067
0.0852615
0.0268838
0.0173363
0.0272637
0.0344354
0.0232297
0.00141319
-0.0173146
-0.0265563
-0.0287379
-0.0289266
-0.0281549
-0.0253935
-0.0207421
-0.0158889
-0.0083679
0.0231014
0.107311
0.194589
0.168553
0.0835089
0.0340921
0.0173586
0.0115399
0.0102687
0.00354942
-0.00755602
-0.0167293
-0.019866
-0.0172938
-0.0119177
-0.00686892
-0.00400775
-0.00539943
-0.0128377
-0.0218167
-0.00872928
0.0622442
0.155003
0.147852
0.0800235
0.0520228
0.0273275
0.0106109
0.00209765
-0.00339599
-0.00784888
-0.0104771
-0.0103507
-0.00768334
-0.00369243
-0.00011764
0.00139396
-0.00114211
-0.00949782
-0.0194429
-0.0122834
0.0419239
0.120548
0.123031
0.0751622
0.0785712
0.0451006
0.0212052
0.00656091
-0.00171401
-0.00606336
-0.00800048
-0.00843053
-0.00798255
-0.0071646
-0.0064693
-0.00649347
-0.0077229
-0.00930143
-0.00801512
0.00536439
0.0442732
0.0945196
0.0973875
0.0695106
0.088623
0.0696266
0.050436
0.0355041
0.0249809
0.0181115
0.0138952
0.0115019
0.0104199
0.0104303
0.0114977
0.0137213
0.0173336
0.0227859
0.0308268
0.0426815
0.0600131
0.0752516
0.0735912
0.0637143
0.051919
0.0474168
0.044699
0.0429288
0.0414609
0.0402765
0.0394609
0.0390395
0.0390183
0.0393889
0.040148
0.0412926
0.0428101
0.0446841
0.046836
0.0492011
0.0517712
0.0540438
0.0553012
0.0590794
)
;

boundaryField
{
    movingWall
    {
        type            zeroGradient;
    }
    fixedWalls
    {
        type            zeroGradient;
    }
    frontAndBack
    {
        type            empty;
    }
}


// ************************************************************************* //
