/*--------------------------------*- C++ -*----------------------------------*\
  =========                 |
  \\      /  F ield         | OpenFOAM: The Open Source CFD Toolbox
   \\    /   O peration     | Website:  https://openfoam.org
    \\  /    A nd           | Version:  11
     \\/     M anipulation  |
\*---------------------------------------------------------------------------*/
FoamFile
{
    format      ascii;
    class       volScalarField;
    location    "14.75";
    object      C;
}
// * * * * * * * * * * * * * * * * * * * * * * * * * * * * * * * * * * * * * //

dimensions      [0 0 0 0 0 0 0];

internalField   nonuniform List<scalar> 
400
(
0.0144902
0.0260306
0.0402279
0.0462705
0.0446041
0.0413486
0.0391338
0.0371767
0.0355577
0.0342367
0.0332153
0.0324997
0.0321091
0.03209
0.0323907
0.0329597
0.033666
0.0343578
0.0348923
0.035256
0.0303635
0.0357433
0.0445237
0.0450839
0.0406373
0.0355766
0.031097
0.0271697
0.0242441
0.0225558
0.0222407
0.0233133
0.025646
0.0288909
0.0326533
0.0363274
0.0391851
0.0405207
0.0399747
0.0380145
0.0354884
0.0420682
0.0462207
0.0422282
0.0348309
0.0271796
0.0201307
0.0144495
0.0109672
0.0101998
0.0124285
0.017552
0.0250424
0.033905
0.0427143
0.049833
0.0538274
0.0539771
0.0508981
0.0469842
0.0384131
0.0458842
0.0466805
0.0392005
0.0287218
0.0176806
0.00725186
-0.000841633
-0.00483309
-0.0034335
0.00390903
0.0166284
0.0329796
0.0501302
0.0647631
0.0738592
0.0756624
0.0704105
0.0608005
0.0522218
0.0403858
0.0488309
0.0476238
0.037461
0.0237046
0.00855647
-0.00590731
-0.0164128
-0.0196484
-0.0133084
0.00314399
0.0279133
0.0568927
0.084133
0.103661
0.111414
0.106478
0.0913031
0.0714001
0.0557777
0.0417679
0.0518215
0.0502045
0.0384786
0.0220513
0.00334311
-0.0142595
-0.0256537
-0.0258754
-0.0116477
0.0172958
0.0571083
0.0999205
0.135602
0.156103
0.15795
0.142429
0.114534
0.0821913
0.0584058
0.0427117
0.0551834
0.0550403
0.0436917
0.0268154
0.00747155
-0.00957342
-0.0177098
-0.0108388
0.0147714
0.0583714
0.112597
0.164083
0.199798
0.213017
0.203997
0.176759
0.136874
0.0922306
0.0603359
0.0431695
0.0587789
0.062214
0.0539826
0.0404646
0.0258138
0.0161176
0.0189351
0.0404389
0.0831027
0.142542
0.204802
0.249986
0.269327
0.263296
0.238955
0.202123
0.154785
0.100583
0.0616821
0.0431306
0.0622007
0.0711674
0.0690388
0.0632059
0.0592771
0.0646667
0.087664
0.133697
0.201519
0.277426
0.334248
0.349265
0.332609
0.296551
0.254925
0.213228
0.165607
0.106439
0.0624655
0.0424768
0.0648065
0.0807986
0.08715
0.0922553
0.102938
0.127322
0.174395
0.250423
0.351053
0.442774
0.470969
0.435547
0.372146
0.304175
0.248407
0.208069
0.167943
0.109443
0.0627516
0.0413649
0.0656398
0.0891699
0.105322
0.12235
0.147526
0.188027
0.251314
0.342144
0.453638
0.553412
0.546923
0.468005
0.369244
0.281182
0.220449
0.188018
0.161718
0.109356
0.0625617
0.0398898
0.0640724
0.0940052
0.119775
0.147311
0.182993
0.231362
0.295741
0.376439
0.463473
0.520959
0.50144
0.418831
0.316226
0.229416
0.176137
0.157144
0.148034
0.106339
0.0619621
0.0381871
0.0598468
0.0932212
0.126633
0.161602
0.202003
0.24906
0.301464
0.355231
0.400597
0.414537
0.381214
0.309983
0.227367
0.159829
0.123217
0.120933
0.129215
0.100551
0.0609663
0.0365839
0.0534066
0.0858338
0.122982
0.161392
0.201228
0.240823
0.276049
0.301401
0.310375
0.294578
0.252786
0.194291
0.134731
0.0901847
0.071935
0.0847668
0.10784
0.0922691
0.0595975
0.0357738
0.0460263
0.0726358
0.107925
0.145087
0.180558
0.210664
0.230739
0.23633
0.224653
0.195594
0.153179
0.105777
0.0634917
0.0361069
0.0311897
0.0537997
0.0865354
0.0824423
0.0578528
0.0369221
0.0398662
0.0568781
0.084274
0.114843
0.142899
0.16384
0.173735
0.170013
0.152328
0.123178
0.0873339
0.0509579
0.0209417
0.00402406
0.0060013
0.0318043
0.0676289
0.0720799
0.0558082
0.0423474
0.0378553
0.0435591
0.0587254
0.0779355
0.0957645
0.107986
0.111757
0.105897
0.0909623
0.0692504
0.0443534
0.0202035
0.00110543
-0.00816488
-0.00297553
0.020681
0.0529596
0.0621063
0.0535621
0.0498937
0.040417
0.03706
0.040004
0.0463957
0.0528595
0.0567085
0.0563095
0.051209
0.04194
0.0298636
0.016855
0.00515508
-0.00274339
-0.00438922
0.00285929
0.0208051
0.043937
0.0535458
0.0512692
0.0532325
0.045997
0.0401021
0.0363751
0.0342963
0.0328996
0.0313242
0.0290728
0.0260499
0.0224898
0.0188516
0.0157427
0.0138438
0.0139041
0.0163599
0.0220396
0.0309246
0.0414397
0.0474444
0.049118
0.0479839
0.0463842
0.0447575
0.0431361
0.041592
0.0402242
0.0390845
0.0381839
0.0375378
0.0371548
0.0370451
0.0372157
0.0376604
0.0383856
0.039358
0.0405574
0.0419234
0.0434632
0.0447749
0.0475327
)
;

boundaryField
{
    movingWall
    {
        type            zeroGradient;
    }
    fixedWalls
    {
        type            zeroGradient;
    }
    frontAndBack
    {
        type            empty;
    }
}


// ************************************************************************* //
