/*--------------------------------*- C++ -*----------------------------------*\
  =========                 |
  \\      /  F ield         | OpenFOAM: The Open Source CFD Toolbox
   \\    /   O peration     | Website:  https://openfoam.org
    \\  /    A nd           | Version:  11
     \\/     M anipulation  |
\*---------------------------------------------------------------------------*/
FoamFile
{
    format      ascii;
    class       volScalarField;
    location    "11.375";
    object      C;
}
// * * * * * * * * * * * * * * * * * * * * * * * * * * * * * * * * * * * * * //

dimensions      [0 0 0 0 0 0 0];

internalField   nonuniform List<scalar> 
400
(
0.00228415
0.0149288
0.0220069
0.0830514
0.116794
0.090549
0.0607079
0.0397217
0.0263786
0.0184606
0.0140613
0.0117723
0.010654
0.0102224
0.0100586
0.0101766
0.0107174
0.0121995
0.0154708
0.0212635
0.020647
0.0206203
0.0616879
0.106352
0.0994404
0.0585659
0.025059
0.00446854
-0.00578611
-0.009102
-0.00846053
-0.00605838
-0.00346329
-0.00188116
-0.00133366
-0.00164975
-0.00241281
-0.00320549
-0.0037398
-0.00385481
0.021502
0.0436118
0.101824
0.127433
0.101326
0.0628824
0.0359606
0.0187386
0.00736503
0.000266065
-0.00289986
-0.00272318
-0.00061687
0.00156821
0.00216814
0.00114811
-0.000528352
-0.00180618
-0.00235883
-0.00241576
0.0232258
0.067547
0.138551
0.162093
0.14488
0.123827
0.104579
0.079042
0.0470531
0.0164025
-0.00479858
-0.0132943
-0.0117546
-0.00635181
-0.00260334
-0.00233636
-0.00386166
-0.00485823
-0.00495375
-0.00484523
0.0245946
0.0850084
0.170497
0.208678
0.217443
0.221672
0.2119
0.175695
0.117187
0.0528958
0.000525679
-0.0288137
-0.0341337
-0.0247884
-0.0139004
-0.00882829
-0.0080422
-0.007323
-0.00581587
-0.00444525
0.024586
0.0924223
0.190527
0.247711
0.283981
0.31468
0.322764
0.292112
0.223265
0.131069
0.039261
-0.0268771
-0.0530243
-0.0455041
-0.0264216
-0.0146896
-0.0109495
-0.00868909
-0.0055313
-0.0020737
0.0234334
0.089165
0.191568
0.259065
0.310819
0.361542
0.397345
0.400793
0.360298
0.273964
0.158179
0.0486865
-0.0196174
-0.0329038
-0.0162123
-0.00502647
-0.00433016
-0.00530536
-0.00289384
0.00227471
0.0217883
0.076803
0.172329
0.235513
0.284504
0.341052
0.403439
0.459869
0.490347
0.47032
0.385686
0.252632
0.120204
0.0568484
0.0465923
0.0384911
0.021664
0.00694602
0.00334022
0.00830371
0.0204733
0.0590222
0.13818
0.185128
0.21632
0.261425
0.331248
0.425475
0.534108
0.63001
0.658285
0.558064
0.359227
0.230513
0.17073
0.123722
0.0729769
0.0312978
0.0144107
0.0157656
0.0201741
0.0397508
0.0983045
0.124579
0.132501
0.155455
0.208334
0.293121
0.410363
0.568745
0.746472
0.783337
0.582342
0.423472
0.322277
0.235681
0.145908
0.06834
0.0310033
0.024342
0.0211633
0.0233198
0.0607056
0.0697421
0.0592105
0.0607768
0.0867054
0.132795
0.194324
0.287616
0.543651
0.687845
0.62859
0.528845
0.435609
0.338426
0.225848
0.115159
0.0529999
0.0336621
0.0234219
0.0123442
0.0311469
0.030061
0.0113389
0.000550606
0.00623731
0.0192696
0.0279205
0.0473893
0.185392
0.355441
0.460338
0.484457
0.456092
0.393569
0.291905
0.165532
0.0792585
0.0432963
0.0269044
0.00745012
0.0119459
0.00728381
-0.0101506
-0.0232404
-0.0255382
-0.0254491
-0.0364132
-0.0472147
0.00348345
0.117412
0.242801
0.333601
0.378862
0.382005
0.326619
0.21116
0.107415
0.0527578
0.0318977
0.00805929
0.00231769
-0.00252962
-0.0136446
-0.0227997
-0.0251152
-0.0250877
-0.033248
-0.0463167
-0.0377403
0.00903234
0.0858173
0.170844
0.250389
0.314559
0.324294
0.243785
0.133577
0.0615072
0.038922
0.0134722
0.000289823
-0.00497079
-0.0098745
-0.0135171
-0.0134923
-0.0110836
-0.0121337
-0.0187196
-0.0237436
-0.017113
0.00782558
0.0542904
0.127802
0.224
0.291795
0.258416
0.153389
0.0689245
0.0497273
0.0226441
0.00372802
-0.00410699
-0.00649242
-0.00657629
-0.0047833
-0.00147931
0.00102361
-0.000132257
-0.00573099
-0.0130536
-0.0166608
-0.00370888
0.0470083
0.144891
0.245005
0.254139
0.163085
0.0743218
0.0761671
0.0413865
0.0146368
0.000669707
-0.0045697
-0.00542912
-0.00424923
-0.00202191
0.00017466
0.000379111
-0.00362985
-0.0122917
-0.0218659
-0.0198685
0.0157296
0.0989333
0.200179
0.232313
0.159464
0.0770633
0.0894558
0.0620183
0.0343236
0.014648
0.00302631
-0.00306773
-0.00591011
-0.00691083
-0.0070307
-0.0073212
-0.00886465
-0.0115923
-0.0122046
-0.00197698
0.0305383
0.0917444
0.166012
0.193952
0.140796
0.0768294
0.0736435
0.0811717
0.0675082
0.0528257
0.0410826
0.0330017
0.0281869
0.0260528
0.026117
0.0280582
0.0317413
0.0375585
0.0468309
0.0612409
0.0825172
0.108714
0.135658
0.138268
0.107629
0.0736744
0.0214356
0.0269916
0.0336972
0.0388688
0.0420552
0.0439828
0.0453981
0.0467604
0.0483069
0.0501436
0.0523146
0.0548237
0.0576515
0.0606918
0.0637808
0.066685
0.0694118
0.0701536
0.0697758
0.0689952
)
;

boundaryField
{
    movingWall
    {
        type            zeroGradient;
    }
    fixedWalls
    {
        type            zeroGradient;
    }
    frontAndBack
    {
        type            empty;
    }
}


// ************************************************************************* //
