/*--------------------------------*- C++ -*----------------------------------*\
  =========                 |
  \\      /  F ield         | OpenFOAM: The Open Source CFD Toolbox
   \\    /   O peration     | Website:  https://openfoam.org
    \\  /    A nd           | Version:  11
     \\/     M anipulation  |
\*---------------------------------------------------------------------------*/
FoamFile
{
    format      ascii;
    class       volScalarField;
    location    "10.125";
    object      C;
}
// * * * * * * * * * * * * * * * * * * * * * * * * * * * * * * * * * * * * * //

dimensions      [0 0 0 0 0 0 0];

internalField   nonuniform List<scalar> 
400
(
7.93884e-08
6.48256e-05
-0.00153211
-0.0144132
0.0389982
0.297036
0.562207
0.468681
0.127718
-0.0554171
-0.0255388
0.0115046
0.00143819
-0.00214314
0.000761092
-0.000157096
2.09658e-05
-1.74723e-06
7.73243e-08
-1.11121e-09
7.22495e-05
-0.000202252
-0.00830664
-0.00869206
0.105238
0.385053
0.577476
0.418046
0.0896778
-0.0585224
-0.0210551
0.0115575
0.0011276
-0.00209265
0.000744184
-0.000149144
1.91039e-05
-1.57155e-06
7.5936e-08
-1.61966e-09
0.000197071
-0.00106625
-0.0116043
-0.00449441
0.124933
0.406562
0.611493
0.489352
0.157238
-0.0479787
-0.0384857
0.00925147
0.00465246
-0.00285334
0.000716671
-0.000107862
1.05049e-05
-6.62087e-07
2.54239e-08
-5.01118e-10
0.000220592
-0.000892163
-0.0107811
-0.0103127
0.0865655
0.33975
0.611083
0.628214
0.33078
0.0133111
-0.0627225
-0.00211811
0.0100217
-0.00331776
0.000572319
-6.16191e-05
4.33478e-06
-1.96005e-07
5.26388e-09
-7.60402e-11
0.000168122
-0.000192063
-0.0073246
-0.0163244
0.0287662
0.215034
0.523808
0.720401
0.553396
0.15345
-0.0666639
-0.0250008
0.0146104
-0.0030588
0.000365408
-2.76752e-05
1.40311e-06
-3.93555e-08
1.2282e-09
1.23561e-11
8.77996e-05
0.00026032
-0.00335773
-0.0150639
-0.0112872
0.088349
0.361929
0.697475
0.746997
0.365972
-0.0236191
-0.053516
0.0161907
-0.00226648
0.000185948
-1.00817e-05
3.68698e-07
1.29877e-08
4.33805e-09
1.90264e-10
2.80403e-05
0.000301809
-0.00068887
-0.00873407
-0.0226774
0.00388916
0.183512
0.558626
0.842945
0.611832
0.0801021
-0.0778558
0.0144115
-0.0013258
6.9973e-05
-5.58186e-06
-4.80513e-07
-3.92215e-09
1.34459e-08
4.87464e-10
2.2649e-06
0.000162475
0.000295804
-0.00287105
-0.015916
-0.027637
0.0463513
0.352848
0.807145
0.843603
0.247425
-0.0894656
0.0103887
-0.000387168
4.33599e-05
-7.90706e-06
-3.12744e-06
-4.04968e-07
-5.81683e-09
-1.70328e-09
-2.36499e-06
4.86344e-05
0.000308799
-0.000119584
-0.00601057
-0.0231588
-0.0212703
0.146814
0.637046
1.01571
0.479079
-0.0809781
0.00408304
0.000314291
0.000186258
2.08933e-05
-4.79938e-06
-1.80459e-06
-2.34633e-07
-1.86819e-08
-1.0937e-06
5.21683e-06
0.000119459
0.000340289
-0.000842845
-0.00881926
-0.0253112
0.00927673
0.344534
1.07881
0.777955
-0.0245849
-0.00930037
-0.0021517
0.000169819
0.000172891
2.4571e-05
-2.27054e-06
-1.06318e-06
-6.89395e-08
-1.8292e-07
-1.9417e-06
2.08709e-05
0.000156327
0.000268351
-0.00126676
-0.00890257
-0.0170105
0.0569571
0.910979
1.04803
0.186143
-0.0185039
-0.0150224
-0.00250059
0.000309137
0.000165728
1.38944e-05
-2.12685e-06
-6.50711e-08
2.05412e-08
-9.59861e-07
-1.92145e-06
2.57286e-05
0.000151632
0.000293111
-0.000781575
-0.00301028
-0.0646965
0.599678
1.06138
0.512906
0.0590622
-0.0314316
-0.0126509
-0.000902723
0.000438383
9.462e-05
2.44405e-06
6.53262e-07
1.66041e-08
-1.33194e-07
-1.9824e-06
-4.10063e-06
1.88902e-05
0.000170119
5.2925e-05
0.00821022
-0.0904648
0.328255
0.924458
0.737626
0.231823
-0.00782071
-0.0266261
-0.00617394
0.000314517
0.000301289
3.42383e-05
4.16496e-06
2.69935e-09
2.47136e-08
-4.06458e-07
-2.82898e-06
-8.07014e-06
7.33276e-05
-0.000952084
0.0134952
-0.0832185
0.133052
0.710381
0.835064
0.434667
0.0755399
-0.0279821
-0.0156097
-0.00143445
0.000549528
0.000125074
1.32314e-05
-1.94249e-10
1.21378e-08
1.59182e-09
-1.98271e-07
-1.01844e-05
0.000146687
-0.00197145
0.0158935
-0.0628876
0.00928337
0.475479
0.806735
0.607065
0.210536
0.000948695
-0.0241383
-0.00595993
0.000300324
0.000210616
2.36345e-05
-1.11302e-10
1.56608e-09
-9.01388e-09
9.43043e-07
-2.00997e-05
0.00029122
-0.00279522
0.0158027
-0.0382941
-0.0531956
0.266103
0.683718
0.704783
0.366523
0.0688531
-0.0229085
-0.0136237
-0.0020121
-0.000113513
1.64107e-05
-2.0453e-11
1.41673e-09
-7.85761e-08
2.27658e-06
-3.97535e-05
0.000457281
-0.00332177
0.0135399
-0.0165678
-0.0712564
0.111071
0.515857
0.714394
0.505673
0.171481
-0.0022645
-0.0236317
-0.00908578
-0.00128934
5.81631e-05
-2.76971e-11
2.99662e-09
-1.59395e-07
4.12877e-06
-6.31506e-05
0.000603162
-0.00350616
0.0105071
-0.00221564
-0.065608
0.0174945
0.356767
0.657764
0.607438
0.305029
0.0561496
-0.0243427
-0.0155742
0.00063605
0.000852921
1.05482e-09
-6.56579e-10
-1.56267e-07
5.29364e-06
-8.26776e-05
0.000719095
-0.00349615
0.00745395
0.0069754
-0.0493314
-0.0415609
0.192501
0.531663
0.662068
0.4877
0.222758
0.06716
0.0397875
0.0290884
0.00493299
-1.93333e-09
8.99452e-08
-1.96594e-06
2.41411e-05
-0.000172909
0.00069759
-0.00119113
-0.00141408
0.00700916
0.00544467
-0.0271671
-0.0501402
0.0252282
0.22484
0.451319
0.562694
0.498646
0.319266
0.129141
0.0153765
)
;

boundaryField
{
    movingWall
    {
        type            zeroGradient;
    }
    fixedWalls
    {
        type            zeroGradient;
    }
    frontAndBack
    {
        type            empty;
    }
}


// ************************************************************************* //
