/*--------------------------------*- C++ -*----------------------------------*\
  =========                 |
  \\      /  F ield         | OpenFOAM: The Open Source CFD Toolbox
   \\    /   O peration     | Website:  https://openfoam.org
    \\  /    A nd           | Version:  11
     \\/     M anipulation  |
\*---------------------------------------------------------------------------*/
FoamFile
{
    format      ascii;
    class       volScalarField;
    location    "11.875";
    object      C;
}
// * * * * * * * * * * * * * * * * * * * * * * * * * * * * * * * * * * * * * //

dimensions      [0 0 0 0 0 0 0];

internalField   nonuniform List<scalar> 
400
(
0.00405192
0.0186596
0.0537421
0.0144579
0.00537419
0.00467698
0.00201755
0.00114115
0.00156388
0.00359292
0.00717073
0.0121063
0.0179926
0.0240259
0.0295099
0.0335025
0.0353294
0.0341612
0.0295055
0.0214571
0.0260099
0.0421001
0.0309984
0.00578181
0.00143559
-0.000740577
-0.00128344
0.00312468
0.0126764
0.027177
0.0451948
0.0645122
0.0823946
0.0964078
0.104326
0.104638
0.0977119
0.0855543
0.0720951
0.0618481
0.0401965
0.0395268
0.014291
-6.66079e-05
-0.0027985
-0.00465105
-0.00097712
0.0110785
0.0321979
0.0614498
0.0956089
0.129672
0.157792
0.17483
0.177209
0.16446
0.139721
0.109349
0.0821736
0.0669949
0.0450991
0.0315377
0.00513324
-0.00290504
-0.00553168
-0.00683089
-9.21082e-05
0.0187758
0.0522526
0.0990068
0.152534
0.20241
0.237577
0.250577
0.239972
0.210174
0.168527
0.12311
0.0835312
0.0610844
0.0464621
0.0249862
0.000745084
-0.0037931
-0.00716806
-0.00937899
-0.00169085
0.0237215
0.0725394
0.14205
0.218561
0.281464
0.312835
0.306664
0.271603
0.223303
0.173461
0.125631
0.0830206
0.0578467
0.0471372
0.0208603
-0.00144656
-0.00433882
-0.00996188
-0.0161153
-0.010528
0.0212806
0.089858
0.189083
0.291654
0.360337
0.370705
0.32704
0.258027
0.193923
0.148051
0.112983
0.0780507
0.0548278
0.0481776
0.018698
-0.00321928
-0.00607598
-0.0157099
-0.028539
-0.0264577
0.0147423
0.111444
0.249258
0.377047
0.435028
0.400687
0.307264
0.205986
0.134112
0.101256
0.0890908
0.0698216
0.0519283
0.0500673
0.0183635
-0.00530871
-0.00913018
-0.0224549
-0.0398619
-0.0350102
0.0275339
0.167489
0.351771
0.490842
0.502442
0.392656
0.251451
0.135431
0.0682321
0.0499272
0.0605744
0.0598565
0.0491185
0.0528989
0.0202147
-0.00710291
-0.0116285
-0.0243085
-0.0369806
-0.0142239
0.0887657
0.288126
0.517464
0.633867
0.543436
0.336846
0.168636
0.0661086
0.0173509
0.009711
0.0344081
0.0496762
0.0464204
0.0566163
0.0255287
-0.00696843
-0.0102868
-0.0147005
-0.0101786
0.0425492
0.186248
0.42483
0.668323
0.7324
0.506427
0.23341
0.0750241
0.0102246
-0.010957
-0.0123781
0.0149302
0.0404555
0.0439057
0.060555
0.0356359
-0.00139261
-0.00277702
0.00846955
0.0394473
0.122662
0.283436
0.500576
0.663651
0.623843
0.360208
0.111319
-0.0031743
-0.0255918
-0.0207353
-0.018346
0.00326771
0.0327371
0.0416043
0.0637837
0.0505317
0.0134191
0.0129561
0.04195
0.100663
0.203975
0.352369
0.504946
0.561185
0.433611
0.201502
0.0255621
-0.0419765
-0.0389532
-0.0200571
-0.015212
-0.00191067
0.0266478
0.0395352
0.0647148
0.0681995
0.0393373
0.0391931
0.0804703
0.158266
0.266113
0.382903
0.464659
0.448729
0.314695
0.137121
0.00738479
-0.042045
-0.0355547
-0.0153119
-0.0103577
-0.00321972
0.0220739
0.0377033
0.0608755
0.0838352
0.0734572
0.0767264
0.120988
0.202065
0.299065
0.379482
0.407434
0.356866
0.239817
0.107541
0.0111601
-0.0296866
-0.0279737
-0.0120742
-0.0074073
-0.00321013
0.018977
0.0361128
0.049176
0.0897872
0.105566
0.119812
0.161522
0.231034
0.305534
0.353233
0.349296
0.28817
0.189491
0.0877645
0.0134602
-0.0212206
-0.0234043
-0.0121059
-0.00735243
-0.00321386
0.0170525
0.034777
0.0301595
0.0800622
0.120477
0.152113
0.192888
0.245265
0.293282
0.314726
0.295393
0.237189
0.156948
0.0773967
0.0178424
-0.0132362
-0.0195421
-0.013458
-0.00909089
-0.0033542
0.0161147
0.0337108
0.0148163
0.056863
0.106909
0.151617
0.193307
0.231605
0.258158
0.262223
0.238453
0.190631
0.130096
0.0708994
0.0243989
-0.00354586
-0.013996
-0.0135463
-0.0103567
-0.00264048
0.0163789
0.0329289
0.0227692
0.0369949
0.0725503
0.111856
0.146588
0.172214
0.18457
0.180563
0.160253
0.127426
0.0886494
0.0511417
0.0208918
0.000922579
-0.00890423
-0.0108613
-0.00820493
0.00103228
0.0184048
0.0324358
0.0410359
0.0267392
0.0361396
0.0521806
0.0674406
0.0775181
0.0804336
0.0760431
0.0655936
0.0512556
0.0356241
0.0210943
0.00946421
0.00187382
-0.00178323
-0.00130174
0.00218895
0.011051
0.0231102
0.0322667
0.0688219
0.0625151
0.0557233
0.0504439
0.0467568
0.0438772
0.0411885
0.03847
0.0357665
0.0332282
0.0310113
0.0292327
0.0279474
0.0271928
0.0269425
0.027152
0.0276707
0.0287953
0.0301702
0.0324106
)
;

boundaryField
{
    movingWall
    {
        type            zeroGradient;
    }
    fixedWalls
    {
        type            zeroGradient;
    }
    frontAndBack
    {
        type            empty;
    }
}


// ************************************************************************* //
