/*--------------------------------*- C++ -*----------------------------------*\
  =========                 |
  \\      /  F ield         | OpenFOAM: The Open Source CFD Toolbox
   \\    /   O peration     | Website:  https://openfoam.org
    \\  /    A nd           | Version:  11
     \\/     M anipulation  |
\*---------------------------------------------------------------------------*/
FoamFile
{
    format      ascii;
    class       volScalarField;
    location    "14.5";
    object      C;
}
// * * * * * * * * * * * * * * * * * * * * * * * * * * * * * * * * * * * * * //

dimensions      [0 0 0 0 0 0 0];

internalField   nonuniform List<scalar> 
400
(
0.0135352
0.026203
0.0373509
0.0373083
0.0466311
0.0481241
0.0478368
0.0468381
0.0455423
0.0441519
0.0427619
0.0414226
0.0401695
0.0390555
0.0381163
0.0374262
0.0370471
0.0371133
0.0377767
0.03913
0.0311702
0.0336696
0.0391206
0.045851
0.0526752
0.0528736
0.0508355
0.0473401
0.0431888
0.0389645
0.0350803
0.0318082
0.0293194
0.0276514
0.0268369
0.0268842
0.0276536
0.0289347
0.0303733
0.0315938
0.0356793
0.0377561
0.0464193
0.057115
0.0620926
0.0604499
0.0551341
0.0472981
0.0384252
0.0297656
0.022305
0.0167209
0.0134052
0.0124177
0.0135651
0.0164842
0.0205712
0.0249711
0.0285787
0.0303909
0.0370909
0.0422465
0.0569001
0.070708
0.0754279
0.0720559
0.0623899
0.0480506
0.0316168
0.0158494
0.00309761
-0.00514702
-0.00833989
-0.00696829
-0.00201703
0.00529586
0.0137323
0.0220048
0.0285487
0.0317463
0.03769
0.0472462
0.0688784
0.0870819
0.0939844
0.0902266
0.0764391
0.0547202
0.0292815
0.0050668
-0.0137123
-0.024472
-0.0265738
-0.0214646
-0.0117791
-0.000356254
0.010929
0.0212672
0.029586
0.0336134
0.0379277
0.0517686
0.0809675
0.105854
0.118324
0.117696
0.103392
0.0776567
0.0457746
0.014193
-0.0111022
-0.0256226
-0.0276137
-0.0193191
-0.00600243
0.00688482
0.0168225
0.0249166
0.0322643
0.0358295
0.0378685
0.0549008
0.0915851
0.125188
0.146892
0.154794
0.147346
0.126158
0.0955296
0.060963
0.0291801
0.00776526
0.00150214
0.00887508
0.0217062
0.0313077
0.0341175
0.0341917
0.0368453
0.0382738
0.0375624
0.0558811
0.098942
0.141932
0.175264
0.196684
0.204684
0.20016
0.184267
0.157446
0.123165
0.0910782
0.0710717
0.0681093
0.0724312
0.0725042
0.0626573
0.0492757
0.0433727
0.0408908
0.0371463
0.0544416
0.101424
0.152409
0.196955
0.233332
0.261807
0.284525
0.300006
0.299916
0.275262
0.229304
0.181837
0.155149
0.140721
0.125202
0.0992804
0.0691124
0.0516163
0.0436243
0.036905
0.0505273
0.0980913
0.15377
0.205853
0.253256
0.298821
0.348924
0.405473
0.45457
0.459463
0.394038
0.312069
0.253258
0.213907
0.180283
0.138685
0.0917845
0.0611352
0.0464097
0.0369896
0.0449959
0.088551
0.144293
0.198308
0.248936
0.300601
0.363298
0.443631
0.528349
0.573871
0.511629
0.413693
0.332735
0.274037
0.226765
0.17461
0.114853
0.0713397
0.0491765
0.0375749
0.0390853
0.0740156
0.124559
0.174569
0.220158
0.265337
0.320855
0.395563
0.479305
0.52766
0.503694
0.435618
0.363056
0.303827
0.255021
0.201239
0.135709
0.0815565
0.0518554
0.0388793
0.0341601
0.0570354
0.0974243
0.138623
0.173709
0.204512
0.240011
0.289224
0.347976
0.389763
0.395709
0.370444
0.331952
0.294341
0.259408
0.214947
0.151936
0.0909251
0.0543545
0.0411261
0.0315604
0.0412192
0.0678307
0.0970629
0.119917
0.135467
0.149786
0.170976
0.200831
0.230249
0.250425
0.258306
0.256806
0.250813
0.240396
0.214589
0.16156
0.0982479
0.0565667
0.0444518
0.0322921
0.0302788
0.0418731
0.057719
0.0691326
0.0732577
0.0732643
0.0754681
0.0846668
0.101216
0.122716
0.146278
0.169393
0.190509
0.205338
0.201575
0.163509
0.102536
0.0583603
0.0489234
0.0364239
0.0266596
0.0253148
0.0284968
0.0302444
0.0275033
0.0213458
0.015773
0.015359
0.0233291
0.0405689
0.0663261
0.0984634
0.133814
0.165425
0.179839
0.157611
0.103045
0.0595971
0.0539387
0.0433882
0.0308769
0.0216546
0.0156642
0.0104399
0.00419142
-0.00290177
-0.00886631
-0.0108637
-0.00617018
0.00696942
0.0290175
0.0593818
0.0956419
0.131134
0.154076
0.144043
0.0989728
0.0601222
0.0520039
0.0487276
0.0396859
0.0296391
0.020657
0.0129449
0.00629904
0.000953587
-0.00226723
-0.00210029
0.0027823
0.0135351
0.030548
0.0534469
0.080671
0.107693
0.127332
0.122676
0.0897133
0.0598373
0.046388
0.0522808
0.0501067
0.0455132
0.0404797
0.0360869
0.0328998
0.0312708
0.0314976
0.0338807
0.0386529
0.0459728
0.0557999
0.0674303
0.0800074
0.0908903
0.0982669
0.0929516
0.0750141
0.0586754
0.0370673
0.0395561
0.04217
0.0441461
0.0454179
0.0462724
0.0470076
0.0478157
0.0487955
0.0499758
0.051342
0.052846
0.0544243
0.0559681
0.0573757
0.0584917
0.0593307
0.0591354
0.0583133
0.0569731
)
;

boundaryField
{
    movingWall
    {
        type            zeroGradient;
    }
    fixedWalls
    {
        type            zeroGradient;
    }
    frontAndBack
    {
        type            empty;
    }
}


// ************************************************************************* //
