/*--------------------------------*- C++ -*----------------------------------*\
  =========                 |
  \\      /  F ield         | OpenFOAM: The Open Source CFD Toolbox
   \\    /   O peration     | Website:  https://openfoam.org
    \\  /    A nd           | Version:  11
     \\/     M anipulation  |
\*---------------------------------------------------------------------------*/
FoamFile
{
    format      ascii;
    class       volScalarField;
    location    "13.5";
    object      C;
}
// * * * * * * * * * * * * * * * * * * * * * * * * * * * * * * * * * * * * * //

dimensions      [0 0 0 0 0 0 0];

internalField   nonuniform List<scalar> 
400
(
0.0101435
0.020654
0.0398657
0.0542685
0.0666567
0.0658919
0.0621287
0.0578278
0.0536478
0.0498492
0.0464901
0.0435699
0.0410965
0.039194
0.0378109
0.0370597
0.0369998
0.0378949
0.0400793
0.0437926
0.0246716
0.0337042
0.0510387
0.065414
0.0704052
0.0646832
0.0558057
0.0459981
0.036627
0.028517
0.0220837
0.0175014
0.0147768
0.0136026
0.0138565
0.0153683
0.0177903
0.0207358
0.0236503
0.0259474
0.0311045
0.0452923
0.0652696
0.0786306
0.0786265
0.0691087
0.0556847
0.0406673
0.0259259
0.0129071
0.00273414
-0.00384516
-0.00651105
-0.00553675
-0.00174167
0.00390466
0.0104175
0.0168692
0.0221948
0.0251316
0.0349001
0.0556448
0.0810278
0.0961899
0.0965348
0.0870192
0.0710351
0.0503173
0.0274944
0.00603002
-0.010703
-0.0203657
-0.0222954
-0.0178564
-0.00957838
-0.000116062
0.00880116
0.0167312
0.023483
0.0276277
0.0371399
0.0646288
0.0978449
0.119482
0.126232
0.121754
0.106867
0.0825503
0.0526751
0.0232048
2.32585e-05
-0.0128124
-0.0143549
-0.00713208
0.00394712
0.0136455
0.0194512
0.0229966
0.0271061
0.0307123
0.0381262
0.0713392
0.113915
0.146001
0.164237
0.17043
0.163495
0.143937
0.115967
0.0858481
0.0598477
0.0429629
0.0370444
0.0406676
0.0480415
0.0510741
0.0459581
0.0373792
0.0334624
0.0340388
0.0381253
0.0748972
0.126347
0.170141
0.202009
0.222923
0.231942
0.230107
0.220324
0.204774
0.184698
0.162485
0.141796
0.128757
0.121525
0.109785
0.0869212
0.0594725
0.0424103
0.0374371
0.0373557
0.074586
0.132272
0.185622
0.228933
0.263815
0.29212
0.317726
0.342612
0.361429
0.361955
0.334846
0.286396
0.242441
0.210389
0.178732
0.136026
0.0869575
0.0534001
0.0408155
0.0361904
0.0704484
0.129935
0.187975
0.236672
0.278611
0.319592
0.368617
0.430939
0.497009
0.535285
0.508528
0.426659
0.348767
0.290976
0.241667
0.183959
0.116219
0.0655513
0.0440763
0.0350139
0.0629547
0.119277
0.176144
0.222635
0.261409
0.300374
0.351806
0.427214
0.526263
0.609127
0.59464
0.499405
0.407645
0.338522
0.282896
0.221325
0.143321
0.0778762
0.0471323
0.0341953
0.0535604
0.1015
0.151885
0.190199
0.217581
0.241528
0.273338
0.325503
0.404497
0.503074
0.516866
0.459312
0.392767
0.337852
0.292867
0.241348
0.16476
0.0893383
0.0498916
0.033967
0.0441641
0.0796546
0.119569
0.146902
0.160191
0.165105
0.169996
0.185359
0.22159
0.276923
0.315
0.32315
0.310261
0.290771
0.271507
0.241655
0.178001
0.0990373
0.0522883
0.0344812
0.0365339
0.0577338
0.0849071
0.101392
0.103241
0.0940736
0.0798232
0.0687174
0.0724536
0.0967418
0.134694
0.171846
0.198418
0.215255
0.226884
0.225105
0.181945
0.106
0.054229
0.0357938
0.0320183
0.0398344
0.0538356
0.0610327
0.0563605
0.0416551
0.0212546
0.00130924
-0.00883412
-0.00131499
0.0244866
0.0614487
0.100323
0.1373
0.172761
0.197199
0.176892
0.109025
0.0556194
0.0377319
0.0311541
0.0289679
0.0313899
0.0311006
0.0238425
0.0101632
-0.00707475
-0.0238915
-0.0348621
-0.034608
-0.0212375
0.00367663
0.0369103
0.0770219
0.12324
0.164906
0.164449
0.107727
0.0563448
0.0398285
0.033233
0.0258968
0.0204386
0.0147325
0.00668698
-0.00365501
-0.0148652
-0.0250273
-0.0319272
-0.033229
-0.0273488
-0.0135538
0.0091869
0.0428806
0.087879
0.134724
0.146789
0.10226
0.056324
0.0417771
0.0370454
0.0291302
0.0206765
0.0124831
0.00450594
-0.00305218
-0.00967822
-0.0148346
-0.0180128
-0.0185789
-0.0155149
-0.00749849
0.0077935
0.0332571
0.069725
0.110512
0.125739
0.0928154
0.0555014
0.0384128
0.0392264
0.034879
0.0282017
0.0211476
0.0147303
0.00945566
0.00558323
0.00319016
0.00232768
0.00315748
0.0062917
0.0127359
0.0240742
0.0417844
0.065795
0.0923579
0.102169
0.0798602
0.0539254
0.0317674
0.0402031
0.0408479
0.0389484
0.0361666
0.0334852
0.0314412
0.0302881
0.0301257
0.0310179
0.0330454
0.0364114
0.0414345
0.0482594
0.0569849
0.0664277
0.0755718
0.075953
0.0640895
0.051703
0.0220525
0.0252253
0.0287437
0.031679
0.0338387
0.0354164
0.0366614
0.0377575
0.0388176
0.0399064
0.0410582
0.0422837
0.0435804
0.0449091
0.0462219
0.0474423
0.0485863
0.0490451
0.0489208
0.0493967
)
;

boundaryField
{
    movingWall
    {
        type            zeroGradient;
    }
    fixedWalls
    {
        type            zeroGradient;
    }
    frontAndBack
    {
        type            empty;
    }
}


// ************************************************************************* //
