/*--------------------------------*- C++ -*----------------------------------*\
  =========                 |
  \\      /  F ield         | OpenFOAM: The Open Source CFD Toolbox
   \\    /   O peration     | Website:  https://openfoam.org
    \\  /    A nd           | Version:  11
     \\/     M anipulation  |
\*---------------------------------------------------------------------------*/
FoamFile
{
    format      ascii;
    class       volScalarField;
    location    "12.25";
    object      C;
}
// * * * * * * * * * * * * * * * * * * * * * * * * * * * * * * * * * * * * * //

dimensions      [0 0 0 0 0 0 0];

internalField   nonuniform List<scalar> 
400
(
0.00595658
0.0210372
0.0195457
0.00116578
0.020061
0.0382831
0.0509073
0.0580439
0.0613198
0.0619757
0.0609912
0.0590569
0.0566486
0.0540734
0.0516699
0.0496011
0.0479606
0.0467536
0.045873
0.045135
0.0271536
0.0195773
0.0110306
0.0214515
0.0527677
0.0783682
0.0936211
0.0982961
0.0948517
0.0862394
0.0752999
0.0642216
0.0545387
0.04717
0.0421253
0.0392634
0.0381979
0.0386156
0.0402451
0.0426401
0.0283062
0.0135948
0.0192461
0.0545257
0.0977254
0.128116
0.140736
0.136596
0.120387
0.097707
0.0737899
0.0528132
0.0372885
0.0277399
0.0234116
0.0228433
0.024584
0.0276323
0.0311753
0.0340271
0.0255053
0.0115978
0.0349801
0.0883714
0.141593
0.176833
0.188649
0.177899
0.149424
0.110804
0.0709349
0.0378639
0.0162683
0.00623761
0.00471039
0.00779042
0.0129176
0.0193519
0.0264689
0.031911
0.0230131
0.0115743
0.0484317
0.114106
0.176887
0.220588
0.23796
0.226525
0.18864
0.133267
0.0745163
0.0266305
-0.00211496
-0.0121286
-0.0102095
-0.00423845
0.00237352
0.0106864
0.0212627
0.0299831
0.0216264
0.0108428
0.054288
0.126449
0.197737
0.253847
0.28535
0.28424
0.246794
0.179384
0.0995625
0.0301897
-0.0114957
-0.0235791
-0.0185856
-0.0108254
-0.0048602
0.00326978
0.0165043
0.0286352
0.0212653
0.00848957
0.0513689
0.123357
0.199274
0.268351
0.321066
0.34415
0.323421
0.254087
0.150874
0.0483992
-0.0167127
-0.0342085
-0.0259856
-0.0156222
-0.0100542
-0.0029788
0.0121868
0.0276452
0.0219438
0.00498275
0.0413386
0.106192
0.179531
0.255868
0.330088
0.388916
0.407105
0.357298
0.236441
0.0894201
-0.0139676
-0.0430398
-0.0343479
-0.0213775
-0.0145954
-0.00812103
0.00847524
0.0270457
0.0235131
0.00148967
0.0274928
0.0794804
0.141609
0.213809
0.300316
0.398701
0.481295
0.489844
0.376316
0.178971
0.0218808
-0.0319859
-0.0341836
-0.0247953
-0.0178943
-0.011972
0.00557269
0.0268804
0.0260672
-0.000975432
0.0134878
0.0497757
0.0941649
0.14972
0.230281
0.353954
0.512614
0.630965
0.576415
0.325286
0.11573
0.0208004
-0.0104455
-0.0174936
-0.0167977
-0.0136628
0.00372773
0.0271873
0.0291614
-0.00109905
0.00221826
0.0231781
0.0481526
0.0800433
0.137425
0.254917
0.448876
0.651483
0.687894
0.477932
0.254236
0.11715
0.0444444
0.0082199
-0.00712977
-0.0117892
0.00340472
0.0280336
0.0326505
0.00148875
-0.00450878
0.00400792
0.0127418
0.0220189
0.0499748
0.136754
0.312287
0.525987
0.619449
0.535483
0.375712
0.229416
0.123021
0.0540474
0.0141112
-0.00481939
0.00510557
0.0294669
0.0365937
0.00659483
-0.00626891
-0.00637819
-0.00777654
-0.0135723
-0.00941364
0.0407444
0.168857
0.347005
0.475468
0.496339
0.426422
0.31599
0.205101
0.113528
0.0470103
0.00831727
0.00948117
0.0315592
0.0411724
0.0137342
-0.00368064
-0.00936108
-0.0150096
-0.026362
-0.0342197
-0.0115348
0.0687557
0.198237
0.326149
0.4027
0.408315
0.355045
0.268962
0.174168
0.0875777
0.0276716
0.0171283
0.0343748
0.0469529
0.0226026
0.00238106
-0.00748274
-0.0144114
-0.0247149
-0.034069
-0.0253115
0.0208947
0.106884
0.211298
0.30139
0.350722
0.349267
0.302152
0.222687
0.128699
0.0516826
0.0280585
0.0379943
0.0562973
0.0340261
0.0119231
-0.00202764
-0.0106817
-0.0187403
-0.0250511
-0.0205962
0.00626386
0.0607384
0.136216
0.215979
0.280108
0.312299
0.302645
0.249129
0.16203
0.0772981
0.0416652
0.0423893
0.063105
0.0473543
0.0265643
0.00963896
-0.00202562
-0.0100774
-0.0142039
-0.0103759
0.00727142
0.0428021
0.0953553
0.157773
0.218669
0.263711
0.27767
0.24911
0.179881
0.0999445
0.0564159
0.0474164
0.0479698
0.0536575
0.0441902
0.0311631
0.0201737
0.0130906
0.0111647
0.0164112
0.0312668
0.0574832
0.0947461
0.139635
0.185092
0.221009
0.236597
0.221796
0.175341
0.112785
0.0692901
0.052742
0.0292274
0.0519788
0.0566964
0.055793
0.0539546
0.0538497
0.0570239
0.064417
0.0764807
0.0930612
0.113143
0.134656
0.154504
0.168335
0.172937
0.163654
0.140881
0.10574
0.075493
0.0577646
0.0258741
0.0344138
0.0424421
0.0487103
0.0535214
0.0575416
0.0613009
0.0650801
0.0689278
0.0727402
0.0763123
0.07938
0.0816921
0.0829437
0.0829875
0.0817055
0.0793152
0.0753526
0.0711765
0.0612989
)
;

boundaryField
{
    movingWall
    {
        type            zeroGradient;
    }
    fixedWalls
    {
        type            zeroGradient;
    }
    frontAndBack
    {
        type            empty;
    }
}


// ************************************************************************* //
