/*--------------------------------*- C++ -*----------------------------------*\
  =========                 |
  \\      /  F ield         | OpenFOAM: The Open Source CFD Toolbox
   \\    /   O peration     | Website:  https://openfoam.org
    \\  /    A nd           | Version:  11
     \\/     M anipulation  |
\*---------------------------------------------------------------------------*/
FoamFile
{
    format      ascii;
    class       volScalarField;
    location    "18.375";
    object      C;
}
// * * * * * * * * * * * * * * * * * * * * * * * * * * * * * * * * * * * * * //

dimensions      [0 0 0 0 0 0 0];

internalField   nonuniform List<scalar> 
400
(
0.0247936
0.033023
0.0437823
0.039886
0.0422636
0.0448612
0.046691
0.0480351
0.0489313
0.0494586
0.0496831
0.0496604
0.0494324
0.049021
0.0484985
0.0479194
0.0473664
0.046909
0.0465993
0.0464268
0.0360989
0.0400715
0.0421487
0.0428619
0.0480427
0.0529734
0.0569301
0.0596084
0.0608319
0.0606717
0.059353
0.0571745
0.0544853
0.0516916
0.0490844
0.0469404
0.0454717
0.0447847
0.0448446
0.0454138
0.0401231
0.0417797
0.0433911
0.0494292
0.0586256
0.0671423
0.0737784
0.0775661
0.078128
0.0756578
0.0707221
0.0642133
0.0572007
0.0507274
0.0455681
0.0422125
0.0407348
0.0407949
0.0417176
0.0426776
0.0413864
0.0423161
0.0468827
0.058404
0.0726929
0.0861565
0.0966202
0.102088
0.101488
0.0949797
0.0838034
0.0701119
0.0564342
0.0449846
0.0372089
0.033642
0.0337726
0.0362566
0.0393571
0.0414559
0.0416865
0.0427575
0.0510787
0.0681692
0.0887006
0.108792
0.124814
0.133115
0.131442
0.119782
0.100354
0.0770919
0.0545474
0.036604
0.0257191
0.0223158
0.0249071
0.0307928
0.0369174
0.0406124
0.0416899
0.0429631
0.0545661
0.0769387
0.104442
0.13278
0.156788
0.170852
0.170976
0.15619
0.128996
0.0949716
0.0611882
0.0342686
0.0182392
0.0133633
0.0171034
0.0256458
0.0346985
0.0400353
0.0416357
0.0426863
0.0563458
0.0829511
0.117164
0.154733
0.1896
0.214396
0.22259
0.210408
0.178591
0.133483
0.0856038
0.0463323
0.0219127
0.0121691
0.0135657
0.0221118
0.0329813
0.0396605
0.0416564
0.0418465
0.0558951
0.08484
0.124166
0.17055
0.218361
0.259367
0.283915
0.282918
0.251865
0.195954
0.130655
0.0757006
0.0398034
0.0216154
0.0164217
0.0212358
0.032012
0.0394642
0.041817
0.0406007
0.0532262
0.0819995
0.123565
0.176324
0.236582
0.296821
0.344847
0.364583
0.341856
0.27651
0.191586
0.11932
0.0702489
0.0412047
0.0259983
0.0234419
0.0319453
0.0394396
0.0422079
0.0392499
0.0488299
0.0748524
0.114997
0.169649
0.237871
0.314342
0.386805
0.434435
0.42916
0.356454
0.256223
0.169658
0.108322
0.0678883
0.0410637
0.0285954
0.0327992
0.0395692
0.0427733
0.038269
0.0436072
0.0645328
0.0997274
0.150904
0.219549
0.302611
0.388513
0.454338
0.469655
0.405347
0.306624
0.216085
0.147217
0.0972081
0.0593576
0.036136
0.0345428
0.0398441
0.043495
0.0380338
0.0387834
0.052999
0.0805651
0.123612
0.184889
0.262925
0.347222
0.415673
0.437897
0.400101
0.326394
0.247378
0.179488
0.124418
0.078108
0.0452083
0.037057
0.0402463
0.0443534
0.0387897
0.0355878
0.0426017
0.0611941
0.0933731
0.141921
0.206256
0.277978
0.339454
0.368636
0.35676
0.313444
0.256408
0.198846
0.145109
0.0945874
0.0547234
0.0401965
0.0407643
0.045267
0.0405435
0.0349424
0.0356365
0.0454437
0.0663018
0.100386
0.147548
0.202168
0.252591
0.285189
0.292663
0.276391
0.243694
0.202176
0.155965
0.106619
0.0634137
0.0437301
0.0413824
0.046025
0.0429742
0.0370759
0.0336573
0.0363962
0.0474557
0.0684722
0.0995116
0.137451
0.175766
0.206682
0.224481
0.226888
0.214775
0.190458
0.155775
0.112525
0.0701561
0.0472328
0.0420958
0.0461524
0.0453781
0.0412181
0.0367368
0.0354525
0.03973
0.0509983
0.0695086
0.0938164
0.120726
0.1461
0.16598
0.177409
0.178436
0.168038
0.145491
0.111606
0.0740712
0.0502668
0.0428703
0.0442748
0.0464376
0.0455725
0.0429604
0.0412253
0.0425015
0.0480929
0.0584095
0.0729251
0.0902261
0.108269
0.124634
0.136941
0.142872
0.140404
0.127492
0.104012
0.0744017
0.0523177
0.0436482
0.0408757
0.045544
0.0480077
0.0487381
0.0491953
0.0507646
0.054364
0.0603647
0.0686204
0.0785337
0.089164
0.0992489
0.107333
0.111733
0.111239
0.104118
0.0901898
0.0702844
0.052759
0.0443502
0.039523
0.0437685
0.0472639
0.0500859
0.0525839
0.055174
0.058159
0.0616604
0.0656153
0.069805
0.0739025
0.0774621
0.0800286
0.0809823
0.0801544
0.07657
0.0705172
0.0607525
0.0508509
0.044867
0.0412028
0.0421722
0.0432953
0.0445077
0.0457258
0.0468736
0.0479113
0.0488253
0.0495984
0.0502161
0.0506622
0.0509197
0.0509828
0.0508256
0.0504637
0.0498718
0.0491242
0.0480179
0.0468461
0.0450665
)
;

boundaryField
{
    movingWall
    {
        type            zeroGradient;
    }
    fixedWalls
    {
        type            zeroGradient;
    }
    frontAndBack
    {
        type            empty;
    }
}


// ************************************************************************* //
