/*--------------------------------*- C++ -*----------------------------------*\
  =========                 |
  \\      /  F ield         | OpenFOAM: The Open Source CFD Toolbox
   \\    /   O peration     | Website:  https://openfoam.org
    \\  /    A nd           | Version:  11
     \\/     M anipulation  |
\*---------------------------------------------------------------------------*/
FoamFile
{
    format      ascii;
    class       volScalarField;
    location    "13.125";
    object      C;
}
// * * * * * * * * * * * * * * * * * * * * * * * * * * * * * * * * * * * * * //

dimensions      [0 0 0 0 0 0 0];

internalField   nonuniform List<scalar> 
400
(
0.00899227
0.0192379
0.0431868
0.0355725
0.0328693
0.0373831
0.0435439
0.0503326
0.0567186
0.0622073
0.0665056
0.0694516
0.0709444
0.0708813
0.0695804
0.0672831
0.0644798
0.0616146
0.0591227
0.057156
0.0233777
0.0349814
0.0387474
0.0341829
0.0400206
0.0536465
0.0705801
0.0880164
0.103183
0.114153
0.119816
0.119796
0.114409
0.104908
0.0926215
0.079346
0.0673137
0.0585896
0.0546758
0.0554378
0.0319035
0.0381281
0.0340707
0.0354006
0.0501277
0.0736244
0.101549
0.129625
0.153854
0.17099
0.178528
0.175217
0.161454
0.139537
0.113064
0.0865132
0.064237
0.049318
0.0426591
0.0422928
0.0355708
0.0362873
0.0296628
0.0351613
0.0549629
0.0848911
0.121673
0.161083
0.197684
0.225072
0.237185
0.230581
0.206141
0.169103
0.127164
0.0886536
0.0597248
0.042855
0.0370101
0.0380488
0.0369973
0.033218
0.0245873
0.0304467
0.0504096
0.0823034
0.125023
0.175148
0.225427
0.265092
0.283
0.272265
0.234193
0.178703
0.120807
0.0740945
0.044953
0.032131
0.0307742
0.0348856
0.0376091
0.0303342
0.0187873
0.0215164
0.0373856
0.066822
0.111752
0.170964
0.236758
0.293841
0.323096
0.310208
0.25526
0.175967
0.0996319
0.0469761
0.0225876
0.0184653
0.0242998
0.0322181
0.0380102
0.0282195
0.0131629
0.0108121
0.0198571
0.042851
0.0852029
0.150407
0.234044
0.317626
0.369848
0.361357
0.287065
0.177007
0.0777524
0.0181385
-0.00111792
0.0041604
0.0179894
0.0298817
0.0384373
0.0272255
0.00882666
0.00118065
0.00248327
0.0159333
0.0499372
0.115295
0.216613
0.336696
0.428611
0.435956
0.340152
0.193078
0.0673693
-0.00177242
-0.0195636
-0.00824946
0.0122584
0.0277992
0.0389388
0.0274448
0.00653212
-0.00538931
-0.0110292
-0.00835137
0.0122984
0.0695309
0.182538
0.344664
0.494489
0.531285
0.410971
0.225973
0.0743131
-0.00661403
-0.0284794
-0.0168852
0.00747324
0.0259733
0.0394843
0.0289462
0.00639418
-0.0082426
-0.0187247
-0.0251792
-0.0187065
0.024462
0.139001
0.337643
0.549494
0.616557
0.477654
0.268614
0.0988819
0.00525633
-0.0264697
-0.0208957
0.00379156
0.0243959
0.0400211
0.0314974
0.00854035
-0.00774287
-0.0207004
-0.0325152
-0.0356425
-0.00524228
0.0987344
0.298345
0.550125
0.627392
0.505448
0.307518
0.136695
0.0321337
-0.0141827
-0.0201802
0.00134237
0.0230867
0.0405055
0.0347709
0.0128814
-0.0045674
-0.0183773
-0.0316478
-0.0379163
-0.0141846
0.0748931
0.246077
0.445869
0.536501
0.476504
0.329487
0.178977
0.0693707
0.0062562
-0.0151197
0.000162416
0.0220544
0.0408559
0.0384666
0.0192929
0.00104773
-0.013115
-0.0253372
-0.0300513
-0.00829753
0.0653993
0.198664
0.347114
0.43413
0.422006
0.332987
0.215907
0.10929
0.031435
-0.00647781
0.00040511
0.0213394
0.0408776
0.0421897
0.0275414
0.00954605
-0.00503499
-0.0156487
-0.0173723
0.00354713
0.0627598
0.161657
0.272254
0.351095
0.368608
0.324806
0.24104
0.143893
0.0568518
0.00440772
0.00233394
0.0209901
0.0400967
0.0452733
0.0370278
0.0216712
0.00742925
-0.00194884
-0.00161661
0.0173603
0.0633706
0.135382
0.217678
0.285671
0.317734
0.304339
0.249178
0.166277
0.0778793
0.0159587
0.00584407
0.0210994
0.0368157
0.0466138
0.0463547
0.037117
0.0260298
0.0187464
0.0203278
0.036407
0.0709805
0.122578
0.18255
0.236913
0.270964
0.273149
0.238582
0.17194
0.0905087
0.0266155
0.010729
0.021725
0.0263085
0.0426585
0.0519295
0.0523563
0.0487975
0.0467129
0.0507661
0.064604
0.0899492
0.125443
0.166135
0.204073
0.229607
0.233577
0.209937
0.158916
0.0919528
0.0349393
0.0167115
0.0228955
0.0167987
0.0348851
0.0504124
0.0604199
0.0667123
0.0725492
0.0809155
0.0937644
0.111572
0.133133
0.155607
0.174708
0.185339
0.182254
0.162832
0.126826
0.0807407
0.0395115
0.0231795
0.0245598
0.0170445
0.0256424
0.0383906
0.0504173
0.061021
0.0706143
0.0798541
0.0891093
0.0982299
0.106537
0.112983
0.116204
0.114914
0.108025
0.0958042
0.078231
0.0578443
0.0388726
0.028953
0.0265612
0.0328104
0.0340343
0.0354157
0.0373945
0.0398637
0.0424336
0.0447861
0.0467371
0.0481463
0.0489278
0.0490289
0.0484354
0.0471925
0.0453466
0.0430498
0.0404045
0.0376019
0.0347448
0.0321396
0.0283477
)
;

boundaryField
{
    movingWall
    {
        type            zeroGradient;
    }
    fixedWalls
    {
        type            zeroGradient;
    }
    frontAndBack
    {
        type            empty;
    }
}


// ************************************************************************* //
