/*--------------------------------*- C++ -*----------------------------------*\
  =========                 |
  \\      /  F ield         | OpenFOAM: The Open Source CFD Toolbox
   \\    /   O peration     | Website:  https://openfoam.org
    \\  /    A nd           | Version:  11
     \\/     M anipulation  |
\*---------------------------------------------------------------------------*/
FoamFile
{
    format      ascii;
    class       volScalarField;
    location    "18";
    object      C;
}
// * * * * * * * * * * * * * * * * * * * * * * * * * * * * * * * * * * * * * //

dimensions      [0 0 0 0 0 0 0];

internalField   nonuniform List<scalar> 
400
(
0.0238904
0.0320638
0.045896
0.0465859
0.0425239
0.0405298
0.0397628
0.0396453
0.0399719
0.0405718
0.0413337
0.0421707
0.0430082
0.043775
0.0443922
0.0447708
0.0448657
0.0446168
0.0440195
0.0431338
0.0350997
0.041377
0.0463478
0.0430964
0.0393413
0.0381669
0.0389505
0.0412781
0.0446649
0.0485429
0.0523748
0.0556821
0.0580648
0.0592749
0.0591784
0.057758
0.0553222
0.0523504
0.0495671
0.0476678
0.0400538
0.045184
0.0441514
0.038916
0.0361406
0.03727
0.0419697
0.0495594
0.0588741
0.0685537
0.0772207
0.0836688
0.0870099
0.0868585
0.0832339
0.0767081
0.0684175
0.0599371
0.0531245
0.049538
0.0426243
0.045903
0.0411577
0.0352128
0.0339957
0.0387605
0.0495181
0.0652092
0.0835966
0.101774
0.11671
0.126018
0.128399
0.123911
0.113609
0.0993402
0.0833099
0.0679306
0.0559015
0.049732
0.0440428
0.0457227
0.0386467
0.0325329
0.0333435
0.0430484
0.0621866
0.0890709
0.119533
0.147912
0.16863
0.177943
0.174955
0.161586
0.141463
0.118541
0.0957234
0.0748497
0.0582883
0.0497393
0.0449246
0.0457551
0.0373262
0.0313909
0.0347708
0.0507892
0.0806478
0.121544
0.166245
0.205013
0.228894
0.233015
0.218236
0.190472
0.157878
0.12719
0.101086
0.0785611
0.0596608
0.0495349
0.0455629
0.0464624
0.0376326
0.0323696
0.0389831
0.0625719
0.105096
0.162245
0.222772
0.271553
0.295219
0.2879
0.25394
0.206336
0.159406
0.122636
0.0975002
0.0781232
0.0598095
0.0491711
0.0460275
0.0479775
0.0398138
0.0359246
0.0463785
0.0781709
0.134127
0.208544
0.285931
0.344713
0.365356
0.340408
0.280247
0.209309
0.147962
0.106958
0.0858904
0.0735437
0.058713
0.0486724
0.0463204
0.0501856
0.0438654
0.0421455
0.0566776
0.0959815
0.163636
0.25319
0.346043
0.414444
0.43066
0.38333
0.293374
0.200333
0.127709
0.0848239
0.0692127
0.0658094
0.0565262
0.0480544
0.0463239
0.0528635
0.0494933
0.0506442
0.0688985
0.113329
0.187467
0.284348
0.38472
0.459125
0.471657
0.400556
0.287059
0.18024
0.102892
0.0611032
0.0509066
0.0562506
0.0535521
0.0473539
0.0460375
0.0553407
0.0560476
0.0605471
0.0816062
0.127726
0.201109
0.2936
0.385732
0.449049
0.453894
0.374657
0.257951
0.151903
0.0777747
0.0398343
0.0340218
0.0462212
0.0500709
0.0465935
0.0454191
0.0569763
0.0624509
0.0705842
0.0932367
0.137566
0.203683
0.282056
0.353894
0.394708
0.380991
0.310246
0.212594
0.121374
0.0566221
0.02387
0.0207838
0.0369157
0.0463908
0.0458032
0.0444031
0.0572125
0.0673445
0.0791401
0.10221
0.142038
0.196976
0.257141
0.306255
0.326417
0.304711
0.245767
0.168991
0.0962894
0.0428084
0.0145453
0.0122497
0.0293745
0.0427849
0.0450027
0.0429657
0.0557104
0.0693851
0.0844305
0.107061
0.140936
0.183655
0.226568
0.257355
0.264615
0.242879
0.196693
0.138274
0.0815602
0.0374379
0.0119983
0.00841032
0.0241589
0.0395952
0.0442147
0.0411772
0.052422
0.0675813
0.0846754
0.106218
0.133919
0.165461
0.194496
0.212939
0.214239
0.196294
0.162133
0.118808
0.0749075
0.0381847
0.0145404
0.00872668
0.0214672
0.037136
0.0434575
0.039408
0.0479649
0.062029
0.0789605
0.0984254
0.120303
0.142601
0.161345
0.171978
0.171109
0.157866
0.133994
0.103105
0.0701846
0.0405501
0.0194491
0.0120744
0.0212192
0.0355926
0.0427651
0.0390354
0.0436636
0.0540392
0.0679106
0.0835269
0.0995704
0.114335
0.12559
0.131167
0.129574
0.120492
0.10483
0.0844129
0.0618188
0.0404138
0.0241336
0.0172486
0.0232245
0.0351201
0.0421788
0.0417717
0.041514
0.0464782
0.0547905
0.0645141
0.0740892
0.0822036
0.0877021
0.089745
0.0878667
0.0821178
0.0729523
0.0613922
0.0487927
0.0368454
0.0276605
0.023522
0.0273243
0.0358302
0.0417362
0.0444815
0.0415148
0.0419557
0.044292
0.0474984
0.0506559
0.0530898
0.0543789
0.054322
0.0528983
0.0502575
0.0466483
0.0424491
0.0381903
0.0343878
0.0318289
0.0309727
0.0333505
0.0377823
0.0414805
0.0458177
0.0447946
0.0438032
0.0430714
0.0425994
0.0422771
0.0419969
0.041696
0.0413533
0.0409753
0.0405843
0.0402096
0.0398793
0.0396263
0.0394734
0.0394472
0.03954
0.0399037
0.0403873
0.0414374
)
;

boundaryField
{
    movingWall
    {
        type            zeroGradient;
    }
    fixedWalls
    {
        type            zeroGradient;
    }
    frontAndBack
    {
        type            empty;
    }
}


// ************************************************************************* //
