/*--------------------------------*- C++ -*----------------------------------*\
  =========                 |
  \\      /  F ield         | OpenFOAM: The Open Source CFD Toolbox
   \\    /   O peration     | Website:  https://openfoam.org
    \\  /    A nd           | Version:  11
     \\/     M anipulation  |
\*---------------------------------------------------------------------------*/
FoamFile
{
    format      ascii;
    class       volScalarField;
    location    "19.5";
    object      C;
}
// * * * * * * * * * * * * * * * * * * * * * * * * * * * * * * * * * * * * * //

dimensions      [0 0 0 0 0 0 0];

internalField   nonuniform List<scalar> 
400
(
0.0273213
0.0347079
0.0438954
0.0417003
0.0446306
0.0467274
0.0479998
0.0487395
0.0490499
0.0490289
0.0487541
0.0482892
0.0476927
0.0470414
0.0463976
0.0458271
0.0453946
0.0451768
0.0452432
0.045611
0.0374587
0.0407476
0.0433637
0.0451427
0.0499054
0.0536291
0.0562061
0.0574867
0.0574818
0.0563681
0.0544197
0.0519422
0.0492652
0.0467253
0.0445447
0.0429094
0.0419357
0.0416456
0.041947
0.0425878
0.0408837
0.0427531
0.0456145
0.0518674
0.0597558
0.0663963
0.0711554
0.0734562
0.0732006
0.0706632
0.0663266
0.060862
0.0550379
0.0495866
0.0450455
0.0418089
0.0400523
0.0396607
0.0401806
0.0408668
0.0420073
0.0439802
0.0499339
0.0609971
0.0734091
0.0847056
0.0935294
0.0986352
0.0994068
0.0959832
0.0890524
0.0798
0.0695691
0.0596058
0.0509395
0.0444019
0.0404886
0.0391929
0.039775
0.0407802
0.0423398
0.0451548
0.0549369
0.0711549
0.0894327
0.107281
0.122497
0.132944
0.137298
0.135277
0.127418
0.11494
0.0994015
0.0827069
0.0669008
0.0537833
0.0447114
0.0403489
0.0399373
0.040952
0.0423959
0.0460288
0.0592938
0.0805303
0.105246
0.130857
0.154608
0.173788
0.186344
0.190794
0.186094
0.172143
0.150231
0.123716
0.0967296
0.0727565
0.0544804
0.0439282
0.0408827
0.0413252
0.042354
0.0463084
0.0619831
0.0872066
0.117556
0.150623
0.183903
0.214987
0.241255
0.258811
0.262698
0.249397
0.219734
0.180219
0.138671
0.100621
0.0698477
0.050094
0.0426255
0.0418286
0.0423103
0.0458439
0.0623952
0.0896932
0.123393
0.161605
0.203051
0.246881
0.290621
0.327203
0.345163
0.334697
0.296075
0.242016
0.185278
0.133012
0.0890128
0.0583994
0.0450896
0.0424319
0.0423251
0.0447215
0.0604136
0.087349
0.12113
0.160446
0.20581
0.259016
0.319237
0.377262
0.413683
0.408391
0.361298
0.295046
0.226611
0.163736
0.109005
0.0679456
0.0481078
0.0431075
0.0424853
0.0431414
0.0563768
0.080583
0.111054
0.146819
0.189875
0.244658
0.313491
0.388695
0.444385
0.445533
0.396073
0.326087
0.253873
0.187012
0.126639
0.0776377
0.0514701
0.0438311
0.0427765
0.0415338
0.0509763
0.070471
0.0950255
0.123491
0.158554
0.206044
0.270287
0.345714
0.412041
0.423544
0.386415
0.326787
0.261754
0.199017
0.139335
0.0864092
0.0549411
0.0445782
0.0432147
0.0403132
0.0452685
0.0587771
0.0760171
0.0953366
0.119303
0.153821
0.203762
0.265523
0.321135
0.345188
0.333453
0.297037
0.24945
0.19861
0.145557
0.0933352
0.0583022
0.0453293
0.0438262
0.0398234
0.0403973
0.0475352
0.0573426
0.0677648
0.0806979
0.101214
0.133906
0.17746
0.220706
0.250024
0.258078
0.246287
0.220878
0.186883
0.145071
0.0977328
0.0612875
0.0460562
0.044613
0.040265
0.0373849
0.0387242
0.0419808
0.0452254
0.0495508
0.0587499
0.0767041
0.103915
0.135397
0.163755
0.182631
0.189062
0.18352
0.167033
0.138727
0.0990873
0.0634974
0.0467298
0.0455132
0.0416264
0.0368443
0.0338775
0.0321612
0.0305244
0.0295329
0.0316636
0.0398009
0.0552432
0.0765489
0.100126
0.121768
0.137749
0.145675
0.143344
0.127867
0.0973497
0.0646297
0.0473266
0.0463433
0.0435723
0.0386581
0.0336004
0.0290405
0.0248403
0.021479
0.0204225
0.0234925
0.0318966
0.0456046
0.063161
0.0822938
0.100184
0.113961
0.120006
0.114293
0.0927594
0.0645138
0.0478058
0.046292
0.045372
0.0419577
0.0372377
0.0323046
0.0277727
0.0242599
0.0226415
0.0238875
0.0287341
0.0373958
0.0494323
0.0636501
0.0784262
0.0916055
0.0998586
0.0995548
0.0855487
0.0629343
0.0481137
0.0440857
0.0458795
0.0450722
0.0426005
0.0395218
0.0366464
0.0346018
0.033931
0.0350701
0.0383148
0.0437296
0.0511324
0.0599292
0.0691375
0.0776445
0.0833772
0.0843127
0.0757012
0.0596943
0.048208
0.0421673
0.045569
0.0467966
0.0469706
0.0466534
0.0463247
0.0463418
0.0469406
0.0482474
0.0502977
0.0530363
0.0563241
0.0599486
0.0634612
0.0665459
0.0681447
0.0679273
0.0629897
0.0546067
0.0480403
0.0411994
0.0422295
0.0433447
0.0443456
0.0451815
0.0458849
0.046509
0.0470946
0.0476591
0.0482029
0.0487157
0.0491784
0.0495744
0.049869
0.050048
0.0500661
0.0499559
0.0494451
0.0487282
0.0476535
)
;

boundaryField
{
    movingWall
    {
        type            zeroGradient;
    }
    fixedWalls
    {
        type            zeroGradient;
    }
    frontAndBack
    {
        type            empty;
    }
}


// ************************************************************************* //
