/*--------------------------------*- C++ -*----------------------------------*\
  =========                 |
  \\      /  F ield         | OpenFOAM: The Open Source CFD Toolbox
   \\    /   O peration     | Website:  https://openfoam.org
    \\  /    A nd           | Version:  11
     \\/     M anipulation  |
\*---------------------------------------------------------------------------*/
FoamFile
{
    format      ascii;
    class       volScalarField;
    location    "19.25";
    object      C;
}
// * * * * * * * * * * * * * * * * * * * * * * * * * * * * * * * * * * * * * //

dimensions      [0 0 0 0 0 0 0];

internalField   nonuniform List<scalar> 
400
(
0.0267649
0.0341945
0.0463564
0.0424172
0.0408815
0.0415995
0.0427073
0.0439688
0.0451999
0.046311
0.0472532
0.0479943
0.0485045
0.0487442
0.0487292
0.0484508
0.0479648
0.0473092
0.0465546
0.0457569
0.0370567
0.0422194
0.0441669
0.0415438
0.0427401
0.0461577
0.0504909
0.0550857
0.0592981
0.0626528
0.0648455
0.0657064
0.0651963
0.0634907
0.0607907
0.0573933
0.053817
0.0506362
0.0484768
0.0476671
0.0415248
0.0438983
0.0422633
0.0424397
0.0475125
0.0555025
0.0650645
0.0748207
0.0834561
0.0899375
0.0934904
0.093721
0.0906566
0.0848125
0.0769219
0.0680229
0.0593569
0.0521848
0.0475596
0.0458326
0.0432295
0.04325
0.0411339
0.044399
0.0537108
0.0672578
0.0834799
0.100268
0.115254
0.12625
0.131521
0.130294
0.122877
0.110619
0.0954077
0.0795335
0.0651574
0.0539718
0.0470526
0.0445242
0.0438106
0.0420625
0.0401751
0.0458671
0.0589461
0.0780602
0.101573
0.126663
0.149627
0.166597
0.174379
0.171367
0.158057
0.137013
0.112315
0.0884162
0.068649
0.0545309
0.0463036
0.0435824
0.044025
0.0408599
0.0387579
0.0455148
0.0609168
0.0843815
0.114692
0.148808
0.181877
0.20794
0.221235
0.217969
0.197958
0.165505
0.128408
0.0946984
0.0694532
0.0535088
0.0451197
0.0427984
0.0441819
0.039809
0.0366649
0.0427565
0.0582944
0.0838562
0.119509
0.163088
0.209299
0.249653
0.273908
0.273612
0.246572
0.199985
0.147202
0.101045
0.0690085
0.0514095
0.043625
0.042133
0.0444129
0.0390713
0.0341224
0.0379121
0.0512587
0.0762345
0.115138
0.168038
0.230276
0.290566
0.331877
0.337836
0.303121
0.240599
0.170458
0.11005
0.069307
0.0490536
0.0420238
0.0415691
0.0447432
0.0388011
0.0316717
0.0320493
0.0414094
0.0633991
0.103046
0.16359
0.242196
0.325468
0.388102
0.401986
0.358701
0.281241
0.195807
0.122193
0.0717917
0.047329
0.0405549
0.041105
0.0451562
0.0391867
0.029942
0.0266079
0.0311821
0.0485674
0.0861524
0.150163
0.240482
0.344102
0.427709
0.447359
0.398097
0.312085
0.218027
0.135659
0.076684
0.046804
0.0394269
0.0407462
0.0455893
0.0402777
0.0296262
0.0229497
0.0229793
0.0352306
0.0683113
0.129915
0.221044
0.329064
0.424554
0.44958
0.406002
0.324305
0.231888
0.147567
0.0831802
0.0476805
0.038781
0.0404962
0.0459897
0.0419686
0.0311287
0.0220843
0.0185855
0.0261683
0.0532616
0.107272
0.188756
0.285346
0.368183
0.401252
0.377716
0.314317
0.234194
0.155336
0.08985
0.049811
0.0386987
0.0403566
0.0462832
0.0440348
0.034466
0.0245147
0.0189092
0.0228956
0.0436264
0.0870093
0.152747
0.230252
0.297596
0.332791
0.3269
0.286154
0.224883
0.157175
0.0949677
0.0527829
0.0392117
0.0403281
0.0463495
0.0460946
0.0391423
0.0300346
0.0238934
0.0255744
0.0405226
0.0727482
0.121461
0.178901
0.231055
0.263984
0.269635
0.248192
0.206254
0.152688
0.0974836
0.0557824
0.0403016
0.040412
0.0459917
0.0476274
0.0441745
0.0376322
0.0325377
0.0332028
0.0435295
0.0659037
0.0994712
0.139271
0.177183
0.204671
0.215514
0.20729
0.181513
0.142249
0.0965454
0.0581207
0.0417573
0.0406246
0.0449091
0.0481241
0.0482726
0.0454594
0.0428245
0.0437519
0.0509224
0.0656566
0.0872862
0.112985
0.138383
0.158614
0.169482
0.168143
0.153677
0.126872
0.0918721
0.0592779
0.0433239
0.0409542
0.0425745
0.0470015
0.0501334
0.0511689
0.0517183
0.0539052
0.0593689
0.0688099
0.0818262
0.0969891
0.11215
0.124823
0.132484
0.132976
0.124982
0.107849
0.0836207
0.0588142
0.0446942
0.0413703
0.0406274
0.0449063
0.0492871
0.0528345
0.0559361
0.0594516
0.0640889
0.0701185
0.0773297
0.0850904
0.0925041
0.0984575
0.101811
0.101329
0.0964338
0.0863971
0.0721645
0.0562388
0.0454702
0.0418218
0.0408409
0.0429816
0.0462523
0.0496707
0.0530105
0.0562733
0.0595118
0.0627183
0.0657868
0.0685222
0.0706898
0.0719912
0.0721736
0.0709238
0.0682981
0.0638668
0.0581176
0.0509983
0.0451401
0.0422347
0.043027
0.0432339
0.0435971
0.0441994
0.0449599
0.0457446
0.0464548
0.0470399
0.0474681
0.0477269
0.0478133
0.0477308
0.047494
0.0471055
0.046598
0.0459672
0.0452698
0.0444269
0.0436043
0.0424879
)
;

boundaryField
{
    movingWall
    {
        type            zeroGradient;
    }
    fixedWalls
    {
        type            zeroGradient;
    }
    frontAndBack
    {
        type            empty;
    }
}


// ************************************************************************* //
