/*--------------------------------*- C++ -*----------------------------------*\
  =========                 |
  \\      /  F ield         | OpenFOAM: The Open Source CFD Toolbox
   \\    /   O peration     | Website:  https://openfoam.org
    \\  /    A nd           | Version:  11
     \\/     M anipulation  |
\*---------------------------------------------------------------------------*/
FoamFile
{
    format      ascii;
    class       volScalarField;
    location    "15.625";
    object      C;
}
// * * * * * * * * * * * * * * * * * * * * * * * * * * * * * * * * * * * * * //

dimensions      [0 0 0 0 0 0 0];

internalField   nonuniform List<scalar> 
400
(
0.0173955
0.0272601
0.0380295
0.0475767
0.0540018
0.0535224
0.0518882
0.0498304
0.0477194
0.0457238
0.0439263
0.0423762
0.0411252
0.0402905
0.0398472
0.0398257
0.0401699
0.0408848
0.0419755
0.0434637
0.0306229
0.0346822
0.0453135
0.0536443
0.0558355
0.0524517
0.047293
0.041348
0.0355976
0.0307269
0.0271656
0.0251363
0.0246955
0.0256317
0.0276517
0.030364
0.0332269
0.0357104
0.0373508
0.0379914
0.0343956
0.0419226
0.0537287
0.0602218
0.058666
0.0516927
0.0422273
0.0320233
0.0227879
0.015766
0.0117479
0.0110087
0.0133242
0.0179119
0.0237017
0.0295797
0.0346111
0.0381716
0.0400018
0.0402983
0.0366504
0.0486366
0.0626481
0.0686252
0.0654805
0.0564284
0.0440753
0.0308246
0.0192639
0.0115875
0.00907956
0.0117886
0.0184904
0.0269804
0.0349953
0.0408009
0.0437767
0.0444573
0.0438833
0.0429482
0.0382234
0.0548275
0.0725283
0.0807202
0.0794686
0.0719141
0.060529
0.0483486
0.0388888
0.0349432
0.0374733
0.0453888
0.0558202
0.0653012
0.0707107
0.0701874
0.064282
0.056066
0.0491131
0.0451553
0.0391595
0.0601671
0.0832111
0.0968427
0.101744
0.100908
0.0969182
0.0933207
0.0936869
0.0995815
0.109715
0.120933
0.129465
0.132749
0.128583
0.11549
0.0949081
0.0726037
0.0556904
0.0471749
0.0394985
0.0642166
0.0936543
0.115303
0.130039
0.140976
0.151218
0.164673
0.183539
0.205387
0.223753
0.232285
0.228448
0.215318
0.194928
0.166379
0.129954
0.0919015
0.0630494
0.0490014
0.0392482
0.0663869
0.102237
0.132884
0.15894
0.183801
0.211532
0.246799
0.290093
0.333009
0.360096
0.358874
0.330815
0.292216
0.252061
0.209779
0.161854
0.11095
0.0704992
0.0506377
0.0385565
0.0663277
0.107271
0.145906
0.181756
0.218009
0.25955
0.31261
0.378087
0.443276
0.480961
0.465989
0.407536
0.342484
0.285433
0.235458
0.184166
0.126938
0.0773224
0.0520491
0.0375832
0.0637725
0.107536
0.151483
0.193097
0.234324
0.279494
0.33574
0.407135
0.484652
0.533556
0.506454
0.428071
0.349655
0.286985
0.238681
0.193248
0.137847
0.083002
0.0532265
0.0366001
0.0589462
0.102128
0.147839
0.190336
0.229254
0.266951
0.309419
0.36213
0.42079
0.466646
0.442647
0.375257
0.308134
0.256535
0.220394
0.188655
0.142642
0.0871014
0.0541448
0.035818
0.0526224
0.0913765
0.135007
0.174122
0.205505
0.229155
0.248973
0.270477
0.294231
0.308805
0.296528
0.264526
0.229083
0.202092
0.186145
0.172709
0.141215
0.0894189
0.054808
0.0354579
0.0458589
0.0767296
0.114627
0.14756
0.169664
0.179129
0.178273
0.172523
0.166898
0.160681
0.152937
0.144598
0.138449
0.137912
0.143793
0.149762
0.134409
0.0897253
0.055189
0.0357828
0.0399581
0.060765
0.089884
0.115103
0.12896
0.128648
0.115723
0.0953901
0.0746002
0.0587414
0.0512625
0.0530829
0.0630768
0.0800744
0.102394
0.124148
0.123566
0.0876969
0.0552651
0.0370599
0.0361787
0.0466047
0.0650697
0.0817917
0.0893681
0.084705
0.0688676
0.0462602
0.0231865
0.00582444
-0.00182483
0.00186174
0.0161863
0.0395187
0.0693512
0.100039
0.110335
0.0835856
0.0550004
0.0394012
0.035276
0.0370989
0.0450155
0.0531331
0.0558302
0.0504171
0.0374171
0.0198414
0.00202972
-0.0115505
-0.0176857
-0.0146917
-0.00214902
0.0195332
0.0486466
0.0805697
0.0962675
0.0778451
0.0543908
0.042639
0.0372895
0.0337426
0.0335573
0.0343759
0.0331711
0.028249
0.0197227
0.00913833
-0.00121452
-0.00894782
-0.0120108
-0.00918936
0.000406888
0.0171833
0.0404517
0.0671425
0.0825059
0.0708612
0.053445
0.0439198
0.0402247
0.035547
0.0316321
0.0283871
0.0249939
0.0208851
0.0161036
0.0112164
0.00709412
0.00465107
0.00479759
0.00820544
0.0154674
0.0268407
0.0420122
0.0593351
0.0696938
0.0631225
0.0522228
0.0425074
0.0428833
0.0404411
0.0374034
0.0344187
0.0317369
0.0294574
0.0276756
0.0265273
0.026184
0.0268078
0.02858
0.0316454
0.0360431
0.0416713
0.0481073
0.0548167
0.058105
0.0551852
0.0508071
0.0389823
0.0397202
0.0404276
0.0408125
0.0409183
0.0409188
0.0409575
0.0411104
0.0414125
0.0418676
0.0424653
0.0431868
0.0440081
0.0449011
0.0458282
0.0467494
0.0476499
0.0482979
0.0486308
0.0495116
)
;

boundaryField
{
    movingWall
    {
        type            zeroGradient;
    }
    fixedWalls
    {
        type            zeroGradient;
    }
    frontAndBack
    {
        type            empty;
    }
}


// ************************************************************************* //
