/*--------------------------------*- C++ -*----------------------------------*\
  =========                 |
  \\      /  F ield         | OpenFOAM: The Open Source CFD Toolbox
   \\    /   O peration     | Website:  https://openfoam.org
    \\  /    A nd           | Version:  11
     \\/     M anipulation  |
\*---------------------------------------------------------------------------*/
FoamFile
{
    format      ascii;
    class       volScalarField;
    location    "12.5";
    object      C;
}
// * * * * * * * * * * * * * * * * * * * * * * * * * * * * * * * * * * * * * //

dimensions      [0 0 0 0 0 0 0];

internalField   nonuniform List<scalar> 
400
(
0.00718699
0.0191695
0.0153589
0.040546
0.0590892
0.057048
0.0535424
0.0501555
0.0471648
0.0445971
0.0423926
0.040499
0.0389034
0.0376943
0.0368356
0.0363952
0.0363923
0.0369596
0.0382235
0.0402417
0.0229918
0.0172667
0.0328951
0.0557754
0.0615373
0.0543243
0.0464051
0.0389009
0.0325663
0.0275741
0.0238385
0.0212095
0.0195602
0.0187041
0.0187555
0.0199024
0.0221781
0.025381
0.0287424
0.0310769
0.0217199
0.0266348
0.0526547
0.0680389
0.0626241
0.049079
0.0357335
0.0244014
0.0160129
0.0103528
0.00675675
0.00447929
0.00303318
0.00240771
0.00319536
0.0061653
0.011786
0.0196004
0.0275959
0.0324607
0.0218199
0.0395777
0.0708922
0.0792067
0.0657866
0.0460245
0.0270108
0.0115944
0.001099
-0.00489866
-0.00784937
-0.00942665
-0.0106261
-0.0113181
-0.0103416
-0.00617752
0.00229908
0.0147923
0.028402
0.0373953
0.0229303
0.0523671
0.0888048
0.0940566
0.0763757
0.0515204
0.0264404
0.00523103
-0.00966065
-0.0181237
-0.0218685
-0.0230258
-0.0226953
-0.0211532
-0.0179449
-0.0118888
-0.00162236
0.0134001
0.0308522
0.0429899
0.0237787
0.0632161
0.107485
0.115835
0.0996177
0.0738019
0.0447662
0.0168408
-0.0067544
-0.0243651
-0.0351276
-0.0382726
-0.0336529
-0.0246518
-0.0148683
-0.00526688
0.00510217
0.0186043
0.0361351
0.0488775
0.0237793
0.0709556
0.126095
0.144393
0.137491
0.119044
0.0935646
0.0629379
0.0287973
-0.00515804
-0.030934
-0.0393346
-0.0285749
-0.00878954
0.00856697
0.0201863
0.0265692
0.0324696
0.0448719
0.054792
0.0227309
0.0742339
0.14182
0.175423
0.185267
0.184145
0.174593
0.154352
0.120327
0.0751844
0.0335531
0.0155944
0.0249724
0.0478027
0.0639351
0.0695176
0.0647512
0.0558568
0.0572418
0.0605998
0.0209395
0.0722334
0.150827
0.201452
0.231268
0.253085
0.270008
0.278841
0.272437
0.245682
0.20441
0.168227
0.152206
0.154998
0.15255
0.14055
0.117271
0.0876535
0.0728388
0.0661689
0.0189664
0.0643965
0.149887
0.214797
0.261447
0.302472
0.343759
0.388446
0.438443
0.483858
0.481142
0.40235
0.333625
0.291564
0.25653
0.220579
0.176647
0.124872
0.0906763
0.0713374
0.0175317
0.0518995
0.136336
0.209622
0.265533
0.314347
0.363864
0.423663
0.507586
0.614771
0.683004
0.598117
0.486995
0.404441
0.342276
0.289107
0.231626
0.162983
0.109364
0.0759429
0.017187
0.0373077
0.111035
0.184449
0.240884
0.285041
0.323767
0.368285
0.437286
0.537412
0.606427
0.583977
0.510506
0.435926
0.376168
0.326131
0.270442
0.196654
0.127202
0.0798248
0.0184347
0.0237512
0.0784235
0.142977
0.192856
0.22527
0.243862
0.257662
0.28381
0.334118
0.379822
0.396961
0.387556
0.366474
0.343779
0.320555
0.285293
0.22078
0.14215
0.0828032
0.0217059
0.0144189
0.0457442
0.0937377
0.132447
0.152706
0.15445
0.143618
0.133452
0.137833
0.15563
0.181903
0.211405
0.238647
0.260526
0.27572
0.274186
0.231417
0.15175
0.0846798
0.0272374
0.0117294
0.0207267
0.0478986
0.0729145
0.0840681
0.0784853
0.0593877
0.0357147
0.0192534
0.0185889
0.0366053
0.0713667
0.115608
0.162688
0.208613
0.241563
0.226897
0.154175
0.0852141
0.0343241
0.0155977
0.00841534
0.0158788
0.0267753
0.0314384
0.0259683
0.0113234
-0.00773492
-0.0241133
-0.0305789
-0.0229975
-0.000446444
0.0354115
0.0833136
0.14134
0.197208
0.208042
0.148454
0.0842298
0.045961
0.0258244
0.00969786
0.00314218
0.00225957
0.00161099
-0.00200063
-0.00915149
-0.018445
-0.0272388
-0.0323249
-0.0306391
-0.0203999
0.00110279
0.037903
0.0913804
0.152063
0.177368
0.134242
0.0816193
0.056941
0.0383876
0.0207253
0.00802914
0.000163302
-0.00472395
-0.00836631
-0.0117502
-0.0151654
-0.0183031
-0.0202938
-0.0195216
-0.0136901
0.000506248
0.0268225
0.0664835
0.114092
0.138384
0.112479
0.077485
0.056156
0.0504117
0.0393854
0.0290256
0.020794
0.014928
0.0110851
0.00880367
0.00773969
0.00778774
0.0091466
0.0124452
0.018728
0.0290795
0.0443345
0.0637235
0.0855375
0.0960488
0.0857373
0.0721538
0.0386703
0.0389144
0.0395572
0.0397808
0.0395488
0.0392188
0.0390796
0.0392589
0.0398097
0.0407395
0.0420536
0.0437607
0.0458688
0.0483733
0.051223
0.0542724
0.0574793
0.0600244
0.0617392
0.0669642
)
;

boundaryField
{
    movingWall
    {
        type            zeroGradient;
    }
    fixedWalls
    {
        type            zeroGradient;
    }
    frontAndBack
    {
        type            empty;
    }
}


// ************************************************************************* //
