/*--------------------------------*- C++ -*----------------------------------*\
  =========                 |
  \\      /  F ield         | OpenFOAM: The Open Source CFD Toolbox
   \\    /   O peration     | Website:  https://openfoam.org
    \\  /    A nd           | Version:  11
     \\/     M anipulation  |
\*---------------------------------------------------------------------------*/
FoamFile
{
    format      ascii;
    class       volScalarField;
    location    "15.25";
    object      C;
}
// * * * * * * * * * * * * * * * * * * * * * * * * * * * * * * * * * * * * * //

dimensions      [0 0 0 0 0 0 0];

internalField   nonuniform List<scalar> 
400
(
0.0161691
0.0271906
0.0403964
0.0327762
0.0340507
0.0386603
0.0431937
0.0472306
0.0505302
0.0530437
0.054794
0.0558251
0.0561742
0.0558336
0.0549828
0.0537264
0.0522744
0.0507699
0.0493254
0.0479304
0.0313677
0.0358081
0.0364734
0.0355588
0.0436355
0.054739
0.0658904
0.0755143
0.0824988
0.0863165
0.0869285
0.0846113
0.079915
0.0737689
0.0669308
0.0602482
0.054632
0.0508111
0.049215
0.0495851
0.0364273
0.0366318
0.0358893
0.0433901
0.0599104
0.0793729
0.0982107
0.113606
0.123658
0.127424
0.124714
0.116203
0.103362
0.0882879
0.0731306
0.0599442
0.0502523
0.0447148
0.0429507
0.0435033
0.0378013
0.0355747
0.0375789
0.0525676
0.0768473
0.104627
0.131815
0.15449
0.169191
0.17347
0.166354
0.149023
0.124705
0.0978907
0.0730677
0.0539661
0.0424332
0.0380537
0.0385951
0.0407973
0.038012
0.0342767
0.0389552
0.0589732
0.0889612
0.12384
0.159361
0.190454
0.211589
0.218031
0.207349
0.180684
0.142955
0.101788
0.0656044
0.0407559
0.0292643
0.0286501
0.0337349
0.0388196
0.0380127
0.0328496
0.0383058
0.060002
0.0923511
0.13153
0.174097
0.214905
0.24692
0.262363
0.254966
0.223016
0.171609
0.112802
0.0613996
0.0279712
0.0151584
0.0183688
0.0288397
0.0373114
0.0381168
0.0313063
0.0352526
0.0550138
0.0854778
0.124645
0.171456
0.22304
0.272662
0.308752
0.317094
0.287822
0.223734
0.143702
0.0721831
0.0250169
0.00591071
0.0095917
0.0244518
0.0361618
0.0384598
0.0298796
0.0304294
0.04516
0.0695589
0.103664
0.150241
0.211516
0.284072
0.353031
0.391806
0.374847
0.299248
0.196059
0.102022
0.0372426
0.00591216
0.00448064
0.0210902
0.0353287
0.0390421
0.0289057
0.0250216
0.0327914
0.0481594
0.0728197
0.113643
0.179637
0.274185
0.382637
0.464245
0.468209
0.382596
0.259292
0.145839
0.0637622
0.016444
0.00424444
0.0191478
0.0348086
0.0398657
0.0287451
0.0202683
0.0206546
0.0260609
0.0390542
0.069364
0.131763
0.238156
0.380567
0.507281
0.533938
0.446882
0.316347
0.193514
0.0991554
0.0358289
0.00903012
0.018769
0.0345792
0.0408057
0.0296964
0.017386
0.0110927
0.00761866
0.00957152
0.0277007
0.0792267
0.180067
0.326936
0.481196
0.528131
0.464389
0.350728
0.234377
0.13624
0.0605268
0.0181567
0.0199996
0.0346334
0.041799
0.0317716
0.0171791
0.00575585
-0.00420368
-0.0104604
-0.00287203
0.0350592
0.118483
0.245005
0.376338
0.443563
0.427019
0.353624
0.260158
0.168376
0.0861916
0.0303562
0.0227139
0.0349462
0.0427894
0.0347919
0.0199317
0.00548814
-0.00810618
-0.018825
-0.0182455
0.00725496
0.069528
0.166627
0.270877
0.342906
0.360818
0.329449
0.267335
0.19041
0.108601
0.0438981
0.0267594
0.0355086
0.0436722
0.0383563
0.0253084
0.0102594
-0.00431154
-0.0161108
-0.0188061
-0.00256194
0.0407337
0.109912
0.189203
0.255692
0.291407
0.290577
0.257519
0.19958
0.124792
0.0567056
0.0318754
0.0363074
0.0442438
0.0418735
0.032397
0.0192473
0.00598851
-0.00452444
-0.00771565
0.00268964
0.0316214
0.078639
0.135912
0.19072
0.230445
0.246381
0.234843
0.19558
0.132569
0.0670503
0.0374011
0.0373558
0.044069
0.0446499
0.0397679
0.0307067
0.0208158
0.013187
0.0111903
0.0184894
0.0377155
0.0687585
0.107991
0.148781
0.183333
0.203985
0.204423
0.180048
0.131115
0.0736636
0.0426733
0.0386082
0.0411723
0.0452472
0.0454963
0.0419734
0.0371231
0.0336042
0.0338472
0.0399029
0.0529916
0.073012
0.0982548
0.125465
0.150071
0.166839
0.170361
0.15539
0.120619
0.0755621
0.0469846
0.0399819
0.0370095
0.0435613
0.0478935
0.0497488
0.0504152
0.0515286
0.0545176
0.0603852
0.0695571
0.0818118
0.0962433
0.111224
0.124414
0.132705
0.133416
0.123264
0.101611
0.0717641
0.0494884
0.0413511
0.0361555
0.0405946
0.0454567
0.0497471
0.0535852
0.0573727
0.0614988
0.066189
0.071445
0.0770439
0.0825775
0.0874238
0.0908731
0.0919677
0.0903093
0.0845559
0.0750967
0.0613662
0.0491817
0.0425407
0.0421293
0.0430889
0.0440665
0.0451916
0.0464645
0.0477818
0.0490497
0.0502085
0.0512017
0.0519836
0.0525136
0.0527567
0.0526998
0.0523113
0.0516219
0.0506086
0.0493688
0.047704
0.0460264
0.0432621
)
;

boundaryField
{
    movingWall
    {
        type            zeroGradient;
    }
    fixedWalls
    {
        type            zeroGradient;
    }
    frontAndBack
    {
        type            empty;
    }
}


// ************************************************************************* //
