/*--------------------------------*- C++ -*----------------------------------*\
  =========                 |
  \\      /  F ield         | OpenFOAM: The Open Source CFD Toolbox
   \\    /   O peration     | Website:  https://openfoam.org
    \\  /    A nd           | Version:  11
     \\/     M anipulation  |
\*---------------------------------------------------------------------------*/
FoamFile
{
    format      ascii;
    class       volScalarField;
    location    "19";
    object      C;
}
// * * * * * * * * * * * * * * * * * * * * * * * * * * * * * * * * * * * * * //

dimensions      [0 0 0 0 0 0 0];

internalField   nonuniform List<scalar> 
400
(
0.0262334
0.0335723
0.0463848
0.0473142
0.0444641
0.0426978
0.0416954
0.0411709
0.0410202
0.0411435
0.0414674
0.0419291
0.042473
0.0430505
0.0435882
0.0440038
0.0442315
0.0441994
0.0438911
0.0433698
0.0363072
0.0422008
0.0470399
0.0446243
0.041278
0.0392841
0.0385888
0.0391647
0.0408495
0.0433392
0.0462633
0.049226
0.0518253
0.0537091
0.0546177
0.054352
0.0529831
0.0507966
0.0484181
0.0466158
0.040889
0.045821
0.0453654
0.0406965
0.0368266
0.035123
0.035986
0.0394938
0.0452507
0.0525121
0.0602978
0.0674975
0.073014
0.0759867
0.0758184
0.072423
0.0664235
0.0591795
0.0526863
0.0489433
0.0432566
0.046601
0.0426893
0.0363249
0.0317775
0.0305237
0.0335774
0.0413322
0.0532715
0.0679634
0.0832468
0.096646
0.105866
0.109303
0.10624
0.097174
0.0838339
0.0690514
0.0564528
0.0495402
0.0445373
0.0464467
0.040064
0.0320212
0.0264017
0.0253746
0.0309389
0.0441615
0.0643977
0.0890609
0.114062
0.134792
0.147356
0.149489
0.141101
0.124256
0.102353
0.0794253
0.0601894
0.0498365
0.0452971
0.0463251
0.0381624
0.0284235
0.0214556
0.0205185
0.0289763
0.0488077
0.0791234
0.115701
0.151744
0.179682
0.193545
0.190904
0.173852
0.147592
0.11765
0.088123
0.0632394
0.0498911
0.0458092
0.0466477
0.0374642
0.0263879
0.0183537
0.0179761
0.030243
0.0581829
0.100562
0.15101
0.198993
0.232753
0.243663
0.230677
0.200455
0.163146
0.126705
0.093664
0.0652258
0.0497539
0.0461499
0.0475523
0.0382969
0.0267618
0.018683
0.0201478
0.0378753
0.0760444
0.133024
0.199677
0.260195
0.296792
0.297978
0.267767
0.219756
0.169888
0.128461
0.095233
0.0659413
0.0494513
0.0463404
0.0489756
0.0407611
0.0300507
0.0234702
0.0284812
0.0533723
0.103449
0.176811
0.261348
0.334232
0.368728
0.352051
0.299233
0.231367
0.168898
0.123794
0.093005
0.0653575
0.04899
0.0463025
0.0507782
0.0446903
0.0361924
0.0326752
0.0424936
0.0748111
0.13559
0.223281
0.32444
0.407571
0.432047
0.393351
0.318575
0.234018
0.16177
0.114499
0.0876858
0.0636647
0.048409
0.0460639
0.0525018
0.0496325
0.0445074
0.0450889
0.0599252
0.0978242
0.163991
0.255915
0.359082
0.444851
0.457609
0.405101
0.318567
0.226221
0.149941
0.102595
0.0802489
0.0610543
0.0477274
0.0456013
0.0537043
0.0547676
0.0537612
0.058668
0.0775077
0.117527
0.181838
0.265913
0.354471
0.418982
0.427015
0.378603
0.296424
0.207936
0.134733
0.0898751
0.0717267
0.0578181
0.0469813
0.0448601
0.0539842
0.0590531
0.0624095
0.0711091
0.0920321
0.130249
0.186431
0.254512
0.320605
0.3633
0.365349
0.325463
0.257485
0.181897
0.11731
0.0774406
0.0632241
0.0542044
0.0461869
0.0437998
0.053066
0.0614243
0.0688028
0.0803141
0.101206
0.134473
0.179043
0.228765
0.27291
0.298276
0.295677
0.264392
0.212286
0.152671
0.0996548
0.066111
0.0554012
0.0505012
0.0453673
0.0424256
0.0508451
0.0610359
0.071381
0.0845133
0.103706
0.13035
0.162717
0.195847
0.222606
0.235743
0.230565
0.20677
0.16865
0.124196
0.0831402
0.0564274
0.0487437
0.0470615
0.0445477
0.0408857
0.0476426
0.0577664
0.0692368
0.0825327
0.098947
0.118734
0.140291
0.160352
0.174837
0.180125
0.174077
0.156534
0.129739
0.0982795
0.0684417
0.0486495
0.0435775
0.044151
0.0437657
0.0401474
0.0442795
0.0523252
0.0625378
0.0741113
0.0868599
0.100317
0.113283
0.123993
0.130503
0.131268
0.125489
0.113226
0.0955656
0.0751574
0.0557389
0.042869
0.0401038
0.0419723
0.0430575
0.0419476
0.0423389
0.0466495
0.0533431
0.0611639
0.0692659
0.0769326
0.0833808
0.0878372
0.0896003
0.0882501
0.0836129
0.0760234
0.0661579
0.0554329
0.045586
0.0392729
0.0384816
0.0406944
0.04246
0.0441181
0.0421775
0.0429636
0.0452288
0.0482051
0.0512372
0.0538342
0.0556533
0.0564774
0.0561997
0.0548438
0.052507
0.0494307
0.0459633
0.0425888
0.0398555
0.0383622
0.0388289
0.0404169
0.0420103
0.0447649
0.0439695
0.0432821
0.0428666
0.0426825
0.0426126
0.0425536
0.0424466
0.0422684
0.0420231
0.0417313
0.0414215
0.0411249
0.0408723
0.0406927
0.0405972
0.0405944
0.040756
0.0409659
0.0417594
)
;

boundaryField
{
    movingWall
    {
        type            zeroGradient;
    }
    fixedWalls
    {
        type            zeroGradient;
    }
    frontAndBack
    {
        type            empty;
    }
}


// ************************************************************************* //
