/*--------------------------------*- C++ -*----------------------------------*\
  =========                 |
  \\      /  F ield         | OpenFOAM: The Open Source CFD Toolbox
   \\    /   O peration     | Website:  https://openfoam.org
    \\  /    A nd           | Version:  11
     \\/     M anipulation  |
\*---------------------------------------------------------------------------*/
FoamFile
{
    format      ascii;
    class       volScalarField;
    location    "14.125";
    object      C;
}
// * * * * * * * * * * * * * * * * * * * * * * * * * * * * * * * * * * * * * //

dimensions      [0 0 0 0 0 0 0];

internalField   nonuniform List<scalar> 
400
(
0.0120173
0.0245796
0.0514854
0.0335565
0.027934
0.0296885
0.0328971
0.0366747
0.0402801
0.043424
0.0459616
0.0478286
0.0489796
0.0493202
0.0489831
0.0480339
0.0466912
0.0450995
0.0434145
0.0416957
0.0302706
0.0422221
0.0408355
0.0295467
0.031893
0.0407218
0.0519811
0.0634832
0.0733199
0.0803401
0.0840175
0.0842987
0.0815048
0.076439
0.0698529
0.0626013
0.0557229
0.0501296
0.0466263
0.0455065
0.0405055
0.0428591
0.0324102
0.0301547
0.0423168
0.0616672
0.0838674
0.104748
0.121001
0.130624
0.132743
0.127713
0.116948
0.10266
0.087041
0.0721216
0.0593925
0.0497448
0.0436864
0.041324
0.0440992
0.0385372
0.0274086
0.0334848
0.0551913
0.0858108
0.119937
0.151418
0.174674
0.185726
0.182926
0.167713
0.144192
0.117726
0.0930102
0.0730918
0.0586262
0.0486236
0.0421334
0.0391733
0.0450252
0.0339263
0.0238527
0.0358522
0.0652851
0.106184
0.152204
0.194887
0.225195
0.235886
0.224208
0.193534
0.152475
0.111412
0.0789197
0.0586336
0.0485826
0.043638
0.0399056
0.037571
0.0452647
0.0301511
0.0200064
0.0344888
0.0682705
0.116774
0.173788
0.229016
0.269147
0.281739
0.26092
0.211601
0.148629
0.0903839
0.0505976
0.0327187
0.0310035
0.0351169
0.0368338
0.036122
0.0455694
0.0273828
0.0152433
0.0283605
0.0620289
0.114249
0.181176
0.252476
0.310057
0.332578
0.30621
0.235749
0.145713
0.0676821
0.0203372
0.00469088
0.0108961
0.0247338
0.0332041
0.0347876
0.046252
0.0258189
0.00994113
0.0182731
0.04737
0.0991278
0.174977
0.26746
0.353634
0.398018
0.371059
0.27494
0.150585
0.0511497
-0.00308414
-0.0176358
-0.0067978
0.0143803
0.0293558
0.0335376
0.0473315
0.0256586
0.00513823
0.00646151
0.0277329
0.0753974
0.158351
0.275145
0.399548
0.478259
0.456767
0.329219
0.164495
0.0439608
-0.0160501
-0.0307395
-0.0191467
0.00551983
0.0256157
0.0323797
0.04879
0.0272559
0.00202257
-0.00414247
0.008063
0.0488822
0.134155
0.269383
0.429872
0.551166
0.546383
0.383956
0.186767
0.0497271
-0.0162982
-0.0337599
-0.0251819
-0.00105746
0.0222123
0.0313234
0.0504113
0.0308042
0.00208564
-0.0109572
-0.00699147
0.0258753
0.106999
0.245289
0.417054
0.554277
0.566946
0.410323
0.213343
0.0714415
-0.00173317
-0.0265321
-0.0249231
-0.00501082
0.0193188
0.0303856
0.0520478
0.0361453
0.00639286
-0.0120486
-0.0142578
0.0113104
0.0831579
0.209127
0.365654
0.489734
0.501837
0.391495
0.235974
0.106133
0.0269738
-0.00947511
-0.0187968
-0.00621229
0.0170598
0.02958
0.0534883
0.0428626
0.015402
-0.00611507
-0.0122662
0.0074567
0.0675077
0.172265
0.300275
0.402223
0.424839
0.361816
0.25258
0.144567
0.0642241
0.0152939
-0.00768409
-0.00465871
0.0156225
0.0289346
0.0543044
0.0500543
0.0285539
0.00726922
-0.000815413
0.0142805
0.0622491
0.14398
0.24232
0.323681
0.355609
0.329221
0.260885
0.17775
0.101555
0.0431694
0.00686255
-0.000520398
0.0153428
0.0284824
0.0536275
0.0561829
0.0439217
0.0271281
0.01944
0.0307413
0.0673313
0.128063
0.200661
0.264242
0.299002
0.295553
0.257626
0.197833
0.130629
0.0686036
0.0226231
0.00582405
0.016362
0.0282702
0.0495466
0.0590211
0.0579066
0.0499131
0.0460105
0.0551397
0.0818359
0.124668
0.175716
0.222724
0.253595
0.260401
0.241375
0.200345
0.145027
0.0861557
0.036896
0.0137867
0.0187023
0.0283472
0.0400807
0.0556468
0.0654016
0.0686361
0.0719067
0.0816462
0.10112
0.129545
0.162487
0.19328
0.214955
0.221978
0.211334
0.183033
0.140657
0.0915896
0.0471134
0.0225599
0.0223057
0.0287593
0.0325549
0.0480961
0.0631238
0.0748709
0.085253
0.0971025
0.111982
0.129505
0.147619
0.163242
0.173117
0.174323
0.165146
0.145252
0.116645
0.0831107
0.0512393
0.0308469
0.0268013
0.029517
0.0333685
0.0411759
0.05252
0.0639355
0.0746641
0.0846571
0.0938997
0.102082
0.10857
0.112553
0.113283
0.110125
0.102886
0.0918146
0.0780968
0.0626569
0.047668
0.0361691
0.0312822
0.0305767
0.0374612
0.0378786
0.0390752
0.0411695
0.0436792
0.0460626
0.0479793
0.0492874
0.0499221
0.0498932
0.0492467
0.0480562
0.0464279
0.0444518
0.0422719
0.0400092
0.0378059
0.035762
0.0339667
0.0316519
)
;

boundaryField
{
    movingWall
    {
        type            zeroGradient;
    }
    fixedWalls
    {
        type            zeroGradient;
    }
    frontAndBack
    {
        type            empty;
    }
}


// ************************************************************************* //
