/*--------------------------------*- C++ -*----------------------------------*\
  =========                 |
  \\      /  F ield         | OpenFOAM: The Open Source CFD Toolbox
   \\    /   O peration     | Website:  https://openfoam.org
    \\  /    A nd           | Version:  11
     \\/     M anipulation  |
\*---------------------------------------------------------------------------*/
FoamFile
{
    format      ascii;
    class       volScalarField;
    location    "16.625";
    object      C;
}
// * * * * * * * * * * * * * * * * * * * * * * * * * * * * * * * * * * * * * //

dimensions      [0 0 0 0 0 0 0];

internalField   nonuniform List<scalar> 
400
(
0.0201775
0.0297755
0.0427454
0.0460881
0.0497107
0.0493609
0.048477
0.0473142
0.0460703
0.0448341
0.0436554
0.0425684
0.0416105
0.0408546
0.0403189
0.0400592
0.0400883
0.0404696
0.0412693
0.0425328
0.0333555
0.0385115
0.04584
0.0494753
0.0508826
0.0490099
0.0460858
0.0424898
0.0387704
0.0353484
0.0325391
0.0305589
0.0295318
0.0294145
0.0301339
0.0315289
0.0332725
0.034992
0.0362995
0.0370023
0.0380867
0.0437747
0.0500302
0.0534049
0.052719
0.0486068
0.0425934
0.0355253
0.0284838
0.022397
0.0180158
0.0158158
0.0159688
0.0182463
0.0220947
0.0267457
0.031322
0.0350036
0.0371962
0.0378135
0.0404036
0.0477212
0.0550483
0.0585076
0.0565259
0.0501287
0.0404164
0.0287537
0.0171279
0.00758433
0.00178306
0.000570166
0.00383915
0.0104231
0.0186222
0.0266381
0.03311
0.0373952
0.0394416
0.0396646
0.0417252
0.051325
0.0610626
0.065882
0.0641197
0.05642
0.0435379
0.0275117
0.0116756
-0.000424486
-0.00614171
-0.00446587
0.00370149
0.0156429
0.0278463
0.0371514
0.0421252
0.0434903
0.0428904
0.0414805
0.0424666
0.0546418
0.0679974
0.0761161
0.077072
0.0708459
0.0579054
0.0408986
0.0242329
0.0123995
0.00853582
0.0136262
0.0259969
0.0415434
0.0548916
0.0614791
0.0601284
0.0540084
0.0477159
0.0433105
0.042782
0.0574234
0.0753173
0.088824
0.095708
0.0954572
0.0883697
0.077254
0.0663684
0.0594439
0.0587856
0.0650984
0.0766909
0.0898903
0.0987512
0.0978388
0.085909
0.0684236
0.0537051
0.0451166
0.0427086
0.0592438
0.0820601
0.102507
0.118216
0.128686
0.134392
0.137987
0.142136
0.147197
0.151734
0.154705
0.155677
0.156425
0.153026
0.140258
0.115758
0.0852479
0.0604775
0.0468772
0.0423328
0.0597822
0.0870402
0.114796
0.140649
0.164546
0.18769
0.213036
0.241473
0.267922
0.282151
0.276188
0.254034
0.231158
0.208143
0.180918
0.14478
0.102469
0.0675206
0.0485509
0.0417521
0.0587402
0.0891823
0.123178
0.158105
0.194367
0.2339
0.280741
0.3365
0.392722
0.423388
0.401294
0.349439
0.297945
0.253065
0.212317
0.168303
0.118062
0.074351
0.0501085
0.0411196
0.0561068
0.0874539
0.125317
0.166141
0.210117
0.25919
0.317637
0.387616
0.459856
0.50733
0.477536
0.407952
0.336967
0.277167
0.228714
0.182834
0.130292
0.080466
0.051509
0.0405666
0.0522344
0.0815808
0.11997
0.162266
0.207459
0.256547
0.31268
0.377319
0.441603
0.477963
0.459311
0.401244
0.332913
0.273366
0.227331
0.186613
0.137894
0.0854757
0.0527297
0.0402556
0.0477303
0.0721238
0.10727
0.146541
0.187015
0.228083
0.271144
0.316823
0.359101
0.380905
0.370593
0.333325
0.285285
0.241619
0.208604
0.180036
0.14029
0.0889096
0.0537206
0.0404189
0.0434905
0.0606881
0.0890477
0.121526
0.153437
0.182559
0.208828
0.23269
0.251986
0.260394
0.254237
0.235629
0.211679
0.190773
0.176981
0.164888
0.137401
0.0901372
0.0544291
0.0413478
0.0405391
0.0496302
0.0686363
0.0917069
0.113482
0.130764
0.142666
0.149832
0.152945
0.151937
0.147283
0.140879
0.135708
0.135186
0.13999
0.144196
0.129758
0.0889464
0.054788
0.0434022
0.0397384
0.0415278
0.0505151
0.0631022
0.0747994
0.0824891
0.0850831
0.0832936
0.0788626
0.0739368
0.0705985
0.0708762
0.0765074
0.0886911
0.105885
0.121777
0.118301
0.0853434
0.0547483
0.0465714
0.041591
0.0383459
0.0390207
0.0422201
0.0453223
0.0462492
0.0442098
0.0397712
0.0344532
0.0302993
0.0293401
0.0332587
0.0433119
0.0599284
0.0809882
0.101033
0.103964
0.0792897
0.0542602
0.0464704
0.0439356
0.0397502
0.0362442
0.0337486
0.0315648
0.0289758
0.0257596
0.0223096
0.0195029
0.0184721
0.0203952
0.0261493
0.0362628
0.0506613
0.0676274
0.0837555
0.0873644
0.0709073
0.0533253
0.043753
0.0462514
0.0445636
0.0418805
0.0390894
0.0365396
0.0343772
0.0327429
0.031846
0.0319671
0.0333891
0.0363756
0.041091
0.047347
0.0548138
0.0622879
0.0688198
0.0688103
0.0605108
0.0519713
0.0379974
0.0392427
0.0405475
0.0414694
0.0419778
0.0422481
0.0424611
0.042736
0.0431431
0.043711
0.0444424
0.0453178
0.0463043
0.0473463
0.0483828
0.0493244
0.0501648
0.05049
0.050392
0.0505179
)
;

boundaryField
{
    movingWall
    {
        type            zeroGradient;
    }
    fixedWalls
    {
        type            zeroGradient;
    }
    frontAndBack
    {
        type            empty;
    }
}


// ************************************************************************* //
