/*--------------------------------*- C++ -*----------------------------------*\
  =========                 |
  \\      /  F ield         | OpenFOAM: The Open Source CFD Toolbox
   \\    /   O peration     | Website:  https://openfoam.org
    \\  /    A nd           | Version:  11
     \\/     M anipulation  |
\*---------------------------------------------------------------------------*/
FoamFile
{
    format      ascii;
    class       volScalarField;
    location    "18.125";
    object      C;
}
// * * * * * * * * * * * * * * * * * * * * * * * * * * * * * * * * * * * * * //

dimensions      [0 0 0 0 0 0 0];

internalField   nonuniform List<scalar> 
400
(
0.024185
0.0323794
0.0462541
0.0432101
0.0397951
0.0396631
0.0403562
0.041434
0.0426521
0.0438683
0.0450028
0.0459998
0.0468092
0.0473636
0.0476476
0.047619
0.0473047
0.0466992
0.0458294
0.0447323
0.0354887
0.0415965
0.0444702
0.0406614
0.039873
0.042298
0.0462099
0.0508953
0.0556119
0.0597591
0.0629113
0.06479
0.0652579
0.064401
0.062359
0.0593809
0.0559693
0.0526884
0.0501824
0.0488724
0.0405258
0.0439959
0.0416612
0.0392791
0.0422424
0.0492953
0.0588806
0.0695038
0.0795683
0.0877409
0.0929969
0.0947706
0.0929899
0.0881242
0.0809022
0.0723544
0.0636891
0.0561418
0.0508578
0.048505
0.0427087
0.043442
0.0391175
0.0390575
0.0463439
0.0595241
0.0768874
0.0959071
0.113498
0.126782
0.133593
0.133114
0.125954
0.113914
0.0992165
0.0841136
0.0703292
0.0590221
0.0511871
0.0476526
0.0436529
0.0421546
0.0369636
0.0390752
0.0508144
0.0712058
0.0982769
0.127969
0.154743
0.173166
0.17951
0.173
0.155993
0.132992
0.10907
0.0881819
0.0718626
0.059589
0.0509126
0.0468978
0.0441524
0.0410136
0.0350399
0.038587
0.0544091
0.0825373
0.120838
0.163292
0.200944
0.224709
0.228579
0.211984
0.180116
0.142025
0.10722
0.0817966
0.0663322
0.0568422
0.049696
0.0461092
0.0445549
0.0403734
0.0333895
0.037397
0.0564611
0.0921896
0.142739
0.20015
0.251351
0.28222
0.283002
0.252914
0.201216
0.144154
0.096826
0.0673005
0.0547908
0.0510401
0.0476035
0.0453003
0.0449888
0.0404615
0.0323289
0.0358781
0.0570113
0.0994243
0.16234
0.236544
0.304711
0.346135
0.344783
0.298385
0.222352
0.144042
0.0837122
0.0498844
0.0402541
0.043188
0.0448411
0.0444782
0.045465
0.0413882
0.0323293
0.0347901
0.0566494
0.103829
0.177291
0.267764
0.354689
0.410221
0.409033
0.34449
0.242133
0.143894
0.0725186
0.0345744
0.0262231
0.034707
0.0417096
0.0436588
0.0459026
0.043247
0.0338204
0.0350096
0.0562605
0.105187
0.184365
0.285262
0.386536
0.456755
0.459694
0.377175
0.254832
0.143655
0.0657332
0.0246029
0.0154133
0.0268881
0.0385223
0.0428645
0.0462177
0.0457535
0.0371329
0.0372249
0.0567594
0.103991
0.182028
0.282681
0.384462
0.455183
0.461128
0.377234
0.254355
0.143025
0.0644567
0.0213452
0.0093718
0.0207082
0.0355461
0.0421146
0.0463156
0.0484551
0.0421264
0.0417731
0.0588908
0.101459
0.171922
0.261992
0.351032
0.409545
0.407807
0.340577
0.239946
0.142239
0.0686886
0.0246565
0.00847706
0.0167821
0.0329968
0.0414253
0.0460649
0.0507955
0.0481214
0.0484251
0.062943
0.0989061
0.157637
0.231116
0.301491
0.345562
0.343624
0.295679
0.220528
0.142007
0.0771009
0.0329735
0.011952
0.0153954
0.0310786
0.0408155
0.0453033
0.0521495
0.0538947
0.0562047
0.0686108
0.0973397
0.142943
0.198574
0.25066
0.283191
0.284546
0.254248
0.202111
0.142257
0.0868896
0.0437696
0.0183467
0.0163446
0.0300619
0.0403056
0.0438402
0.0518889
0.0578428
0.0632217
0.0745693
0.0967344
0.130052
0.169569
0.206248
0.230103
0.234233
0.217268
0.183242
0.139499
0.0939522
0.0537211
0.0259022
0.0191507
0.0300252
0.0399208
0.0415634
0.0497611
0.0585949
0.0670601
0.0783662
0.0955138
0.118765
0.14514
0.16941
0.18592
0.190547
0.18173
0.160424
0.129787
0.0943459
0.0596724
0.032773
0.023203
0.0309164
0.0396845
0.0391267
0.0460366
0.0554847
0.0655163
0.0767256
0.090197
0.10591
0.122322
0.136867
0.146747
0.149745
0.144662
0.131428
0.111057
0.0859153
0.0596217
0.0375479
0.0278979
0.0326593
0.0396175
0.0396401
0.0428572
0.0498828
0.0585551
0.0679465
0.077753
0.0875738
0.0966157
0.103841
0.10815
0.108684
0.104847
0.0966449
0.0844848
0.06958
0.0536652
0.0396444
0.0326902
0.0350777
0.0397205
0.0419117
0.0411512
0.0440393
0.0484627
0.0534591
0.0583515
0.0626661
0.0660434
0.0681956
0.0689004
0.0680494
0.0655942
0.0616557
0.0565173
0.0507222
0.0448308
0.0396508
0.0370364
0.0378739
0.0399824
0.0450022
0.0443302
0.043795
0.04365
0.043832
0.0441437
0.0444178
0.0445631
0.0445384
0.0443418
0.0439924
0.0435213
0.042967
0.042366
0.0417661
0.0412012
0.0407039
0.0403936
0.0402496
0.0403096
)
;

boundaryField
{
    movingWall
    {
        type            zeroGradient;
    }
    fixedWalls
    {
        type            zeroGradient;
    }
    frontAndBack
    {
        type            empty;
    }
}


// ************************************************************************* //
