/*--------------------------------*- C++ -*----------------------------------*\
  =========                 |
  \\      /  F ield         | OpenFOAM: The Open Source CFD Toolbox
   \\    /   O peration     | Website:  https://openfoam.org
    \\  /    A nd           | Version:  11
     \\/     M anipulation  |
\*---------------------------------------------------------------------------*/
FoamFile
{
    format      ascii;
    class       volScalarField;
    location    "16.375";
    object      C;
}
// * * * * * * * * * * * * * * * * * * * * * * * * * * * * * * * * * * * * * //

dimensions      [0 0 0 0 0 0 0];

internalField   nonuniform List<scalar> 
400
(
0.0194364
0.0293659
0.0441009
0.0388683
0.0429178
0.046431
0.0485769
0.0499215
0.05061
0.0508082
0.0506375
0.0501934
0.049549
0.0487582
0.0479162
0.047108
0.0464385
0.0460189
0.0459456
0.0462293
0.0332357
0.0390132
0.0420073
0.0434604
0.0506137
0.0564111
0.0603642
0.0623523
0.0624136
0.0608614
0.0581378
0.0547145
0.0510608
0.0476257
0.0447138
0.0425809
0.0413588
0.0410673
0.0415805
0.0425915
0.0387254
0.0414674
0.0441411
0.0526929
0.0642461
0.0735347
0.0794846
0.0813229
0.079094
0.0735061
0.0656325
0.0567935
0.0483435
0.0414117
0.0366669
0.0343499
0.0341929
0.035517
0.0373839
0.0388453
0.04052
0.0424348
0.0494087
0.064982
0.0822444
0.0964585
0.105268
0.106823
0.100737
0.0882256
0.0716816
0.0542147
0.0388916
0.0278871
0.0221614
0.021502
0.0246292
0.0296187
0.0344162
0.0373099
0.0409619
0.0432981
0.055628
0.0783132
0.102758
0.123712
0.136871
0.138646
0.127906
0.106533
0.0788237
0.0503579
0.026456
0.0106662
0.00428494
0.00617809
0.0135576
0.0230733
0.0315507
0.0363213
0.040954
0.0437785
0.0608363
0.0903497
0.122952
0.152498
0.172655
0.177856
0.165684
0.137784
0.0995289
0.0588639
0.0240481
0.00121051
-0.0076696
-0.00499123
0.00481864
0.0174973
0.0291745
0.0357433
0.0408256
0.0434726
0.0635947
0.0986513
0.139146
0.17856
0.209453
0.224643
0.21933
0.192314
0.147294
0.0936843
0.0442363
0.0102807
-0.00495489
-0.00563582
0.00215905
0.0144036
0.0275997
0.0354694
0.040763
0.0422146
0.0630769
0.101216
0.147613
0.196563
0.241382
0.274517
0.287827
0.273487
0.228599
0.161753
0.0925601
0.0424878
0.0163341
0.00745432
0.00786865
0.0149404
0.0271016
0.0354615
0.0408683
0.0401935
0.0591861
0.0970459
0.145683
0.201317
0.260153
0.316496
0.359563
0.37216
0.338127
0.259309
0.165987
0.0957695
0.0547661
0.0335987
0.0220869
0.0194799
0.0278398
0.0357032
0.0412879
0.0378072
0.0525098
0.0865873
0.132801
0.189706
0.257462
0.334331
0.410557
0.462476
0.453354
0.364625
0.250958
0.161771
0.104711
0.0691231
0.0431714
0.0277499
0.0298141
0.0361673
0.0419692
0.035783
0.044263
0.0713211
0.110699
0.162467
0.230138
0.315663
0.411202
0.490735
0.512659
0.436065
0.322904
0.226039
0.157212
0.108377
0.0682394
0.0389823
0.0329651
0.0368372
0.0429116
0.0347496
0.0362156
0.0539371
0.0832374
0.124573
0.183056
0.262704
0.35729
0.442138
0.475591
0.436571
0.35581
0.271464
0.20158
0.144986
0.0937132
0.052047
0.0371261
0.0376861
0.0441226
0.035181
0.0302531
0.0377862
0.0555202
0.0837273
0.127267
0.190579
0.269443
0.345037
0.387913
0.383931
0.343061
0.286253
0.228458
0.172887
0.116064
0.0655029
0.0420717
0.0386915
0.0455376
0.0372423
0.0279506
0.0262802
0.0328444
0.0480594
0.0755489
0.119094
0.176727
0.237072
0.282924
0.30306
0.296695
0.270923
0.233506
0.187564
0.13239
0.0776891
0.0474129
0.0398233
0.0469271
0.0406576
0.0300267
0.0220332
0.0196605
0.0241819
0.0381272
0.0642205
0.102136
0.146436
0.188172
0.219277
0.235112
0.234721
0.218947
0.187743
0.140519
0.08708
0.0525399
0.0410587
0.0477081
0.0445642
0.0357827
0.0257693
0.0184352
0.0160893
0.0208331
0.0345306
0.0575673
0.0878693
0.121233
0.152563
0.177286
0.191488
0.191949
0.175294
0.139633
0.0924338
0.0568093
0.0423367
0.045512
0.0470272
0.0429597
0.0355127
0.0282188
0.0238007
0.0242519
0.0309517
0.0443984
0.0639231
0.0876731
0.112772
0.135849
0.153169
0.160699
0.153836
0.129995
0.0925999
0.0594203
0.0435612
0.0393208
0.0462314
0.0480552
0.0462356
0.0432674
0.0413404
0.0420325
0.0463137
0.0545255
0.066397
0.0810418
0.0969714
0.112084
0.123747
0.129556
0.12617
0.11195
0.0861201
0.0593829
0.0446097
0.0357597
0.0438196
0.0486917
0.0516628
0.0536703
0.0556331
0.0582397
0.0618758
0.066627
0.0723199
0.0785608
0.0847416
0.0901438
0.0937016
0.0948878
0.0919398
0.0849067
0.0711013
0.0555252
0.0453162
0.035993
0.0380212
0.0403048
0.0425576
0.044624
0.0464567
0.0480741
0.0495109
0.0507717
0.0518461
0.0527084
0.0533231
0.0536669
0.0536829
0.0533722
0.0526883
0.0517324
0.0501395
0.048369
0.0455118
)
;

boundaryField
{
    movingWall
    {
        type            zeroGradient;
    }
    fixedWalls
    {
        type            zeroGradient;
    }
    frontAndBack
    {
        type            empty;
    }
}


// ************************************************************************* //
