/*--------------------------------*- C++ -*----------------------------------*\
  =========                 |
  \\      /  F ield         | OpenFOAM: The Open Source CFD Toolbox
   \\    /   O peration     | Website:  https://openfoam.org
    \\  /    A nd           | Version:  11
     \\/     M anipulation  |
\*---------------------------------------------------------------------------*/
FoamFile
{
    format      ascii;
    class       volScalarField;
    location    "15.5";
    object      C;
}
// * * * * * * * * * * * * * * * * * * * * * * * * * * * * * * * * * * * * * //

dimensions      [0 0 0 0 0 0 0];

internalField   nonuniform List<scalar> 
400
(
0.0170064
0.0274046
0.0366355
0.0399159
0.0495474
0.0534355
0.0546732
0.0545641
0.0536531
0.0522881
0.0506895
0.0490105
0.0473778
0.0459462
0.0447952
0.0440313
0.0437003
0.0438913
0.0446558
0.0459759
0.0310352
0.0335924
0.0404615
0.0496853
0.0591209
0.0627105
0.0625812
0.0596253
0.0547895
0.0490203
0.0431591
0.0378936
0.0337781
0.0311421
0.0300749
0.0305348
0.0321879
0.0345553
0.0369839
0.038848
0.0344446
0.0382168
0.0494056
0.0638012
0.0741286
0.0774672
0.0750473
0.0678727
0.0575323
0.0457874
0.0343369
0.0246942
0.0180303
0.0148892
0.0152143
0.0184593
0.0236352
0.0294239
0.0343006
0.0369322
0.0356679
0.0431677
0.0609899
0.0807466
0.094084
0.0991356
0.0961891
0.0859809
0.0703949
0.0522127
0.0344864
0.0199711
0.0104825
0.00646858
0.00739326
0.012073
0.0190869
0.0269544
0.0338686
0.0377138
0.036254
0.0479877
0.0729809
0.0992762
0.118488
0.128663
0.12895
0.11949
0.102358
0.0811605
0.0598606
0.0418341
0.0289799
0.0217665
0.0194461
0.0204308
0.023542
0.0285876
0.0347325
0.0387594
0.036479
0.0516521
0.083368
0.117126
0.144595
0.163493
0.172277
0.170818
0.16095
0.145347
0.126436
0.106445
0.0873383
0.0714185
0.0592519
0.0492667
0.0407343
0.0361349
0.0374436
0.0400995
0.0364234
0.0534744
0.0903973
0.131157
0.167385
0.19693
0.218803
0.233605
0.242341
0.243895
0.235006
0.213825
0.183102
0.150919
0.122241
0.0956648
0.0697002
0.0494932
0.0419247
0.0416017
0.0361734
0.0530934
0.0927882
0.138358
0.181188
0.219791
0.255163
0.290321
0.326163
0.356032
0.366073
0.345092
0.297039
0.24255
0.193932
0.149742
0.105544
0.0671587
0.0478749
0.0432138
0.0358759
0.0506721
0.0900331
0.136902
0.181951
0.224201
0.267137
0.317743
0.379749
0.443436
0.481497
0.464551
0.397905
0.322315
0.256691
0.199309
0.141489
0.0866961
0.0547832
0.0448768
0.0357385
0.0465792
0.0825128
0.126822
0.168936
0.207625
0.247672
0.299349
0.371958
0.460944
0.530288
0.522546
0.449577
0.366896
0.295516
0.234142
0.171175
0.105535
0.0620743
0.0465346
0.0358559
0.0417722
0.0712063
0.109494
0.144551
0.17388
0.201899
0.239509
0.29885
0.380764
0.464792
0.475754
0.426336
0.361628
0.301855
0.248353
0.190116
0.121429
0.0691703
0.0481326
0.0363197
0.0373006
0.0580356
0.0877312
0.113507
0.131106
0.14353
0.160304
0.193583
0.248052
0.308096
0.339158
0.334699
0.308618
0.275986
0.241398
0.196376
0.132683
0.0755655
0.049628
0.0372204
0.0340842
0.0453315
0.0650583
0.081271
0.0883178
0.0875191
0.0862807
0.0952417
0.121616
0.159627
0.195748
0.219317
0.228454
0.227122
0.21708
0.190963
0.138317
0.0807016
0.050963
0.0386131
0.0328002
0.0354384
0.04515
0.0527546
0.0523746
0.0439478
0.0326851
0.0269502
0.0342215
0.0556599
0.0865889
0.119618
0.148547
0.170497
0.182706
0.176478
0.138031
0.0838066
0.0520781
0.0404521
0.0337116
0.0300836
0.0311763
0.0317353
0.0270911
0.0164492
0.00299945
-0.00751398
-0.00918473
0.00132765
0.0234212
0.0537505
0.0875598
0.120423
0.146822
0.156438
0.132334
0.084477
0.0529137
0.0425859
0.0364275
0.0297203
0.0250332
0.0206376
0.0139918
0.00436583
-0.00660679
-0.0156385
-0.0190435
-0.0139795
0.000454706
0.0234819
0.0529728
0.0858372
0.116446
0.134616
0.122177
0.0826183
0.0534021
0.0443536
0.0400689
0.0334269
0.0266464
0.0200931
0.0131974
0.00579396
-0.00135024
-0.00672269
-0.00851656
-0.00512541
0.00452128
0.0205284
0.0424575
0.0687151
0.0950574
0.113688
0.108431
0.0781256
0.0534722
0.0428554
0.0425268
0.0387622
0.0335139
0.0280055
0.0227776
0.0181709
0.0146396
0.0127669
0.0132327
0.0166585
0.0236099
0.0342494
0.0483132
0.0649635
0.0816619
0.0943077
0.0915559
0.0710387
0.0530956
0.0397242
0.0434682
0.0433341
0.0417705
0.0397445
0.0378945
0.0366207
0.0361817
0.0367563
0.0384822
0.0414417
0.0456837
0.0511756
0.057574
0.0644977
0.0705301
0.0747626
0.0718025
0.0615458
0.0522602
0.0377611
0.0394214
0.0410614
0.0423259
0.0432373
0.0439492
0.0446019
0.0452807
0.0460262
0.0468463
0.0477296
0.0486501
0.0495778
0.0504598
0.0512541
0.0518852
0.0523685
0.0522752
0.0518081
0.0511843
)
;

boundaryField
{
    movingWall
    {
        type            zeroGradient;
    }
    fixedWalls
    {
        type            zeroGradient;
    }
    frontAndBack
    {
        type            empty;
    }
}


// ************************************************************************* //
