/*--------------------------------*- C++ -*----------------------------------*\
  =========                 |
  \\      /  F ield         | OpenFOAM: The Open Source CFD Toolbox
   \\    /   O peration     | Website:  https://openfoam.org
    \\  /    A nd           | Version:  11
     \\/     M anipulation  |
\*---------------------------------------------------------------------------*/
FoamFile
{
    format      ascii;
    class       volScalarField;
    location    "16.25";
    object      C;
}
// * * * * * * * * * * * * * * * * * * * * * * * * * * * * * * * * * * * * * //

dimensions      [0 0 0 0 0 0 0];

internalField   nonuniform List<scalar> 
400
(
0.0190705
0.0288952
0.0464334
0.0389898
0.0388098
0.041721
0.044295
0.0465435
0.0483133
0.0496102
0.0504672
0.0509259
0.051019
0.0507493
0.050211
0.0494655
0.0486394
0.0478304
0.047129
0.0465473
0.0328017
0.040383
0.0424839
0.0398868
0.0447533
0.051745
0.0584809
0.064137
0.0680338
0.0699304
0.0698898
0.0681592
0.0651176
0.0613076
0.0571802
0.0532015
0.0498598
0.0475348
0.0464746
0.0465931
0.0392415
0.0423646
0.0408858
0.0450929
0.0566495
0.0700516
0.0826731
0.0924841
0.0981486
0.0992233
0.0959188
0.089084
0.080011
0.0702086
0.0609568
0.0532716
0.0477165
0.0443905
0.0430234
0.0430295
0.0415245
0.0414707
0.0416826
0.0529712
0.0720958
0.093593
0.11376
0.128909
0.136258
0.134657
0.124664
0.108588
0.0898254
0.0718562
0.0572685
0.0474337
0.0422108
0.0403619
0.040388
0.0410885
0.0421361
0.0400641
0.0431048
0.0607963
0.0878221
0.118595
0.147774
0.169247
0.17797
0.171658
0.151547
0.12224
0.0903498
0.0623027
0.0426991
0.0329867
0.0313301
0.0339463
0.0373155
0.0395803
0.0422309
0.0385167
0.0434795
0.065976
0.100149
0.140429
0.17995
0.209975
0.222496
0.213022
0.182504
0.137737
0.0894431
0.048711
0.0230949
0.0139492
0.0171903
0.0259216
0.0339409
0.0383333
0.0422754
0.0368227
0.0418719
0.0666451
0.105824
0.154644
0.2059
0.248945
0.272053
0.266066
0.228676
0.167613
0.0992333
0.0423736
0.00823544
-0.00252538
0.00373602
0.0177387
0.0305598
0.0372843
0.0425019
0.0351309
0.03817
0.0621122
0.10297
0.158011
0.221766
0.283371
0.326957
0.335174
0.297344
0.219637
0.126828
0.0506695
0.00549027
-0.0102587
-0.00514613
0.0110008
0.0275164
0.0364124
0.0429794
0.0337594
0.033013
0.0530339
0.0916657
0.149198
0.223985
0.307351
0.380271
0.414744
0.385416
0.291687
0.171634
0.0750995
0.0175129
-0.00631231
-0.0070619
0.00690841
0.0251238
0.0357223
0.0437521
0.0331834
0.0275044
0.0412753
0.0740284
0.129162
0.209634
0.310732
0.41377
0.483583
0.474385
0.366469
0.225531
0.112755
0.0432823
0.00919366
-0.00137263
0.00609933
0.0235746
0.035211
0.0446913
0.0338355
0.0231879
0.0292572
0.0535743
0.101545
0.179602
0.286381
0.40425
0.49514
0.509907
0.412126
0.273597
0.156807
0.0789711
0.0339003
0.0111006
0.00870075
0.0230161
0.0348862
0.0457086
0.0358665
0.0215199
0.0197024
0.0345015
0.0720583
0.140084
0.238868
0.352128
0.443638
0.466275
0.40497
0.300101
0.197156
0.118184
0.0638996
0.0284155
0.0144205
0.0234945
0.0347447
0.0466838
0.0391719
0.0234926
0.0150971
0.0207978
0.0468255
0.100214
0.18161
0.277498
0.358977
0.392303
0.367352
0.302102
0.224344
0.153056
0.0941166
0.0478319
0.0225589
0.0250572
0.0347956
0.0473788
0.04325
0.0292108
0.0170596
0.0155178
0.0309166
0.0688094
0.129662
0.203816
0.271653
0.311849
0.314565
0.284332
0.234219
0.176664
0.119044
0.0663702
0.0319995
0.0277388
0.0350457
0.0473388
0.0471477
0.0375977
0.025629
0.0200453
0.0272806
0.0516748
0.0935564
0.146939
0.200095
0.240097
0.258309
0.252605
0.226306
0.184979
0.134257
0.081034
0.0414586
0.0312669
0.0355153
0.0456671
0.049562
0.0463274
0.0385366
0.033117
0.0359332
0.050553
0.0774326
0.113325
0.151852
0.185482
0.207705
0.214473
0.204239
0.177633
0.137283
0.089401
0.0496654
0.0352459
0.0361978
0.0406342
0.0485998
0.05214
0.0511157
0.049733
0.0523037
0.0615657
0.0781443
0.100549
0.125615
0.149274
0.16733
0.176193
0.173161
0.156903
0.127763
0.089976
0.0553541
0.0391599
0.0370624
0.0353148
0.0448068
0.0526455
0.0577515
0.0617135
0.0666796
0.0741574
0.0845966
0.0974127
0.111205
0.124089
0.133878
0.138478
0.135952
0.125525
0.106783
0.082019
0.0570411
0.0422405
0.0380366
0.0345681
0.0406272
0.0476275
0.0541774
0.0601726
0.0658946
0.0716158
0.0773908
0.0830083
0.0880399
0.0919492
0.0940946
0.0939343
0.0909281
0.0852454
0.076374
0.0653531
0.0528291
0.0434037
0.0389985
0.0381672
0.0391051
0.0404075
0.0421
0.0439717
0.0457713
0.0473388
0.0486055
0.049528
0.0500922
0.0502953
0.0501436
0.0496648
0.0488657
0.0478093
0.0465203
0.0451107
0.0434881
0.0419392
0.0396918
)
;

boundaryField
{
    movingWall
    {
        type            zeroGradient;
    }
    fixedWalls
    {
        type            zeroGradient;
    }
    frontAndBack
    {
        type            empty;
    }
}


// ************************************************************************* //
