/*--------------------------------*- C++ -*----------------------------------*\
  =========                 |
  \\      /  F ield         | OpenFOAM: The Open Source CFD Toolbox
   \\    /   O peration     | Website:  https://openfoam.org
    \\  /    A nd           | Version:  11
     \\/     M anipulation  |
\*---------------------------------------------------------------------------*/
FoamFile
{
    format      ascii;
    class       volScalarField;
    location    "14";
    object      C;
}
// * * * * * * * * * * * * * * * * * * * * * * * * * * * * * * * * * * * * * //

dimensions      [0 0 0 0 0 0 0];

internalField   nonuniform List<scalar> 
400
(
4.33349e-80
2.38683e-75
1.17002e-70
5.02464e-66
1.85184e-61
5.69451e-57
1.4026e-52
2.59424e-48
3.20286e-44
1.97968e-40
1.97968e-40
3.2025e-44
2.5936e-48
1.40202e-52
5.69108e-57
1.85033e-61
5.01931e-66
1.16846e-70
2.38296e-75
4.32507e-80
2.38683e-75
1.31625e-70
6.46014e-66
2.77771e-61
1.02499e-56
3.15578e-52
7.78251e-48
1.44123e-43
1.78154e-39
1.10253e-35
1.10253e-35
1.78139e-39
1.44094e-43
7.77994e-48
3.15424e-52
1.02431e-56
2.77529e-61
6.45304e-66
1.31447e-70
2.38296e-75
1.17002e-70
6.46014e-66
3.17453e-61
1.36665e-56
5.04923e-52
1.55649e-47
3.84323e-43
7.12598e-39
8.81953e-35
5.46484e-31
5.46484e-31
8.81896e-35
7.12491e-39
3.84224e-43
1.55589e-47
5.04654e-52
1.36569e-56
3.1717e-61
6.45304e-66
1.16846e-70
5.02464e-66
2.77771e-61
1.36665e-56
5.89076e-52
2.17908e-47
6.72561e-43
1.66271e-38
3.08676e-34
3.82509e-30
2.37308e-26
2.37308e-26
3.82491e-30
3.08642e-34
1.66239e-38
6.72364e-43
2.17819e-47
5.88754e-52
1.36569e-56
2.77529e-61
5.01931e-66
1.85184e-61
1.02499e-56
5.04923e-52
2.17908e-47
8.07072e-43
2.49406e-38
6.17346e-34
1.1475e-29
1.42374e-25
8.8438e-22
8.8438e-22
1.42369e-25
1.14741e-29
6.17261e-34
2.49352e-38
8.06825e-43
2.17819e-47
5.04654e-52
1.02431e-56
1.85033e-61
5.69451e-57
3.15578e-52
1.55649e-47
6.72561e-43
2.49406e-38
7.71681e-34
1.91248e-29
3.55927e-25
4.42157e-21
2.74996e-17
2.74996e-17
4.42149e-21
3.55909e-25
1.91231e-29
7.71567e-34
2.49352e-38
6.72364e-43
1.55589e-47
3.15424e-52
5.69108e-57
1.4026e-52
7.78251e-48
3.84323e-43
1.66271e-38
6.17346e-34
1.91248e-29
4.74566e-25
8.84297e-21
1.0999e-16
6.84926e-13
6.84926e-13
1.09989e-16
8.84273e-21
4.7454e-25
1.91231e-29
6.17261e-34
1.66239e-38
3.84224e-43
7.77994e-48
1.40202e-52
2.59424e-48
1.44123e-43
7.12598e-39
3.08676e-34
1.1475e-29
3.55927e-25
8.84297e-21
1.64983e-16
2.05464e-12
1.28105e-08
1.28105e-08
2.05463e-12
1.64981e-16
8.84273e-21
3.55909e-25
1.14741e-29
3.08642e-34
7.12491e-39
1.44094e-43
2.5936e-48
3.20286e-44
1.78154e-39
8.81953e-35
3.82509e-30
1.42374e-25
4.42157e-21
1.0999e-16
2.05464e-12
2.56197e-08
0.000159936
0.000159936
2.56197e-08
2.05463e-12
1.09989e-16
4.42149e-21
1.42369e-25
3.82491e-30
8.81896e-35
1.78139e-39
3.2025e-44
1.97968e-40
1.10253e-35
5.46484e-31
2.37308e-26
8.8438e-22
2.74996e-17
6.84926e-13
1.28105e-08
0.000159936
0.99968
0.99968
0.000159936
1.28105e-08
6.84926e-13
2.74996e-17
8.8438e-22
2.37308e-26
5.46484e-31
1.10253e-35
1.97968e-40
1.97968e-40
1.10253e-35
5.46484e-31
2.37308e-26
8.8438e-22
2.74996e-17
6.84926e-13
1.28105e-08
0.000159936
0.99968
0.99968
0.000159936
1.28105e-08
6.84926e-13
2.74996e-17
8.8438e-22
2.37308e-26
5.46484e-31
1.10253e-35
1.97968e-40
3.2025e-44
1.78139e-39
8.81896e-35
3.82491e-30
1.42369e-25
4.42149e-21
1.09989e-16
2.05463e-12
2.56197e-08
0.000159936
0.000159936
2.56197e-08
2.05464e-12
1.0999e-16
4.42157e-21
1.42374e-25
3.82509e-30
8.81953e-35
1.78154e-39
3.20286e-44
2.5936e-48
1.44094e-43
7.12491e-39
3.08642e-34
1.14741e-29
3.55909e-25
8.84273e-21
1.64981e-16
2.05463e-12
1.28105e-08
1.28105e-08
2.05464e-12
1.64983e-16
8.84297e-21
3.55927e-25
1.1475e-29
3.08676e-34
7.12598e-39
1.44123e-43
2.59424e-48
1.40202e-52
7.77994e-48
3.84224e-43
1.66239e-38
6.17261e-34
1.91231e-29
4.7454e-25
8.84273e-21
1.09989e-16
6.84926e-13
6.84926e-13
1.0999e-16
8.84297e-21
4.74566e-25
1.91248e-29
6.17346e-34
1.66271e-38
3.84323e-43
7.78251e-48
1.4026e-52
5.69108e-57
3.15424e-52
1.55589e-47
6.72364e-43
2.49352e-38
7.71567e-34
1.91231e-29
3.55909e-25
4.42149e-21
2.74996e-17
2.74996e-17
4.42157e-21
3.55927e-25
1.91248e-29
7.71681e-34
2.49406e-38
6.72561e-43
1.55649e-47
3.15578e-52
5.69451e-57
1.85033e-61
1.02431e-56
5.04654e-52
2.17819e-47
8.06825e-43
2.49352e-38
6.17261e-34
1.14741e-29
1.42369e-25
8.8438e-22
8.8438e-22
1.42374e-25
1.1475e-29
6.17346e-34
2.49406e-38
8.07072e-43
2.17908e-47
5.04923e-52
1.02499e-56
1.85184e-61
5.01931e-66
2.77529e-61
1.36569e-56
5.88754e-52
2.17819e-47
6.72364e-43
1.66239e-38
3.08642e-34
3.82491e-30
2.37308e-26
2.37308e-26
3.82509e-30
3.08676e-34
1.66271e-38
6.72561e-43
2.17908e-47
5.89076e-52
1.36665e-56
2.77771e-61
5.02464e-66
1.16846e-70
6.45304e-66
3.1717e-61
1.36569e-56
5.04654e-52
1.55589e-47
3.84224e-43
7.12491e-39
8.81896e-35
5.46484e-31
5.46484e-31
8.81953e-35
7.12598e-39
3.84323e-43
1.55649e-47
5.04923e-52
1.36665e-56
3.17453e-61
6.46014e-66
1.17002e-70
2.38296e-75
1.31447e-70
6.45304e-66
2.77529e-61
1.02431e-56
3.15424e-52
7.77994e-48
1.44094e-43
1.78139e-39
1.10253e-35
1.10253e-35
1.78154e-39
1.44123e-43
7.78251e-48
3.15578e-52
1.02499e-56
2.77771e-61
6.46014e-66
1.31625e-70
2.38683e-75
4.32507e-80
2.38296e-75
1.16846e-70
5.01931e-66
1.85033e-61
5.69108e-57
1.40202e-52
2.5936e-48
3.2025e-44
1.97968e-40
1.97968e-40
3.20286e-44
2.59424e-48
1.4026e-52
5.69451e-57
1.85184e-61
5.02464e-66
1.17002e-70
2.38683e-75
4.33349e-80
)
;

boundaryField
{
    movingWall
    {
        type            zeroGradient;
    }
    fixedWalls
    {
        type            zeroGradient;
    }
    frontAndBack
    {
        type            empty;
    }
}


// ************************************************************************* //
