/*--------------------------------*- C++ -*----------------------------------*\
  =========                 |
  \\      /  F ield         | OpenFOAM: The Open Source CFD Toolbox
   \\    /   O peration     | Website:  https://openfoam.org
    \\  /    A nd           | Version:  11
     \\/     M anipulation  |
\*---------------------------------------------------------------------------*/
FoamFile
{
    format      ascii;
    class       volScalarField;
    location    "17.875";
    object      C;
}
// * * * * * * * * * * * * * * * * * * * * * * * * * * * * * * * * * * * * * //

dimensions      [0 0 0 0 0 0 0];

internalField   nonuniform List<scalar> 
400
(
0.0235931
0.0318745
0.0443082
0.0484401
0.0464415
0.0437674
0.0419984
0.0407566
0.0399962
0.039617
0.0395426
0.0397065
0.0400555
0.0405645
0.041132
0.0416687
0.0420806
0.0422839
0.04225
0.0420388
0.0348649
0.0403443
0.0471452
0.0466015
0.0425915
0.0388702
0.0364587
0.0354259
0.0358011
0.0373603
0.0397591
0.0425922
0.0454295
0.0478401
0.0494831
0.0500767
0.0495833
0.0481616
0.0462799
0.0446009
0.0392998
0.0453195
0.0475292
0.0433558
0.0376577
0.0334864
0.0319423
0.0333925
0.037654
0.0440324
0.0515186
0.0589281
0.0650739
0.0689683
0.0699283
0.0678058
0.0631373
0.0571142
0.0514819
0.0480423
0.0418533
0.0479032
0.0469991
0.0405708
0.034118
0.0307491
0.0320294
0.0385985
0.0499501
0.0644847
0.079789
0.0931979
0.10232
0.105618
0.10262
0.09401
0.0815197
0.0677687
0.0560157
0.0494389
0.0434636
0.0497187
0.0472305
0.0399667
0.0341577
0.0335694
0.0405728
0.0560294
0.0785481
0.104532
0.129034
0.147278
0.155957
0.154098
0.14276
0.124427
0.1022
0.0795328
0.0606497
0.0503765
0.0445061
0.0516257
0.0491989
0.0427845
0.039634
0.0446395
0.0611118
0.0896737
0.126903
0.165706
0.197535
0.215549
0.216894
0.203358
0.179531
0.150459
0.119817
0.0899901
0.0647376
0.0509925
0.0451689
0.0539002
0.0532047
0.0495479
0.0514118
0.0650442
0.0945681
0.139719
0.193838
0.244848
0.279583
0.289507
0.274347
0.242085
0.202932
0.164574
0.129778
0.0971791
0.0678166
0.0513559
0.0454658
0.0564208
0.0589867
0.0598687
0.0687156
0.0929878
0.137321
0.200298
0.271637
0.333366
0.366269
0.359769
0.318991
0.262924
0.208008
0.163464
0.129786
0.0998153
0.0695776
0.0515014
0.0454193
0.0588617
0.0658151
0.0724617
0.0891208
0.123787
0.181037
0.258579
0.343779
0.413694
0.441617
0.412485
0.341196
0.261878
0.194754
0.148336
0.12038
0.0977786
0.0698987
0.0514357
0.04496
0.0607788
0.0726895
0.0854713
0.109278
0.151499
0.21547
0.297891
0.386238
0.457833
0.479825
0.426336
0.330837
0.237426
0.166186
0.123105
0.103945
0.0917092
0.0689067
0.0511971
0.0441919
0.0614912
0.0782645
0.0967431
0.125814
0.171201
0.233776
0.308331
0.382544
0.436378
0.446051
0.382485
0.283888
0.192691
0.127579
0.0928206
0.0837424
0.0827028
0.0667491
0.0508019
0.0431661
0.0605923
0.0812219
0.104273
0.136113
0.180217
0.234687
0.292308
0.341363
0.366511
0.3511
0.2916
0.211391
0.137314
0.0861189
0.0625875
0.0631387
0.0720541
0.0636969
0.0502847
0.0419371
0.0579365
0.0805019
0.106395
0.13855
0.178073
0.22112
0.259693
0.28392
0.284543
0.255327
0.202013
0.139925
0.0853788
0.0496034
0.0365952
0.0449171
0.0612272
0.0599734
0.049657
0.0406482
0.0537897
0.0757306
0.102166
0.132544
0.165808
0.197441
0.220314
0.227357
0.214315
0.181594
0.136
0.0882277
0.0485215
0.02412
0.0181929
0.030758
0.0513923
0.0558323
0.0489348
0.0395923
0.0488179
0.0674287
0.0916032
0.118348
0.144941
0.167112
0.179594
0.178139
0.161427
0.131984
0.0953592
0.0587608
0.0290239
0.0113004
0.0084993
0.0217454
0.0434254
0.0517149
0.0481217
0.0393476
0.0442108
0.0573798
0.0764174
0.0975914
0.117421
0.132303
0.138852
0.134938
0.120523
0.09792
0.0709993
0.0441988
0.0220826
0.00857565
0.00661244
0.018043
0.0378648
0.0479913
0.0472499
0.0410996
0.0414959
0.0481552
0.0599622
0.0738104
0.0865556
0.0954978
0.0986478
0.0951041
0.0851801
0.070359
0.0529589
0.03555
0.0208581
0.0116438
0.0104654
0.019147
0.0349988
0.0449733
0.0463622
0.0444425
0.0413749
0.0423369
0.0467838
0.0528434
0.0585099
0.0621887
0.0628755
0.0602591
0.054619
0.0467419
0.0377295
0.0289408
0.0218553
0.0178271
0.0183513
0.0243578
0.0350003
0.0429749
0.0455173
0.04625
0.0430536
0.041327
0.04093
0.041311
0.0417821
0.0418007
0.0410731
0.0395482
0.0373663
0.0348036
0.0322167
0.0300061
0.028635
0.0283798
0.0297974
0.0329108
0.0379056
0.042304
0.0447882
0.0452366
0.0444749
0.0436712
0.0429006
0.0422052
0.0416007
0.0410832
0.0406453
0.040292
0.0400313
0.0398749
0.0398338
0.0399126
0.0401224
0.0404552
0.0409162
0.0414752
0.0422093
0.0429307
0.0443138
)
;

boundaryField
{
    movingWall
    {
        type            zeroGradient;
    }
    fixedWalls
    {
        type            zeroGradient;
    }
    frontAndBack
    {
        type            empty;
    }
}


// ************************************************************************* //
