/*--------------------------------*- C++ -*----------------------------------*\
  =========                 |
  \\      /  F ield         | OpenFOAM: The Open Source CFD Toolbox
   \\    /   O peration     | Website:  https://openfoam.org
    \\  /    A nd           | Version:  11
     \\/     M anipulation  |
\*---------------------------------------------------------------------------*/
FoamFile
{
    format      ascii;
    class       volScalarField;
    location    "19.875";
    object      C;
}
// * * * * * * * * * * * * * * * * * * * * * * * * * * * * * * * * * * * * * //

dimensions      [0 0 0 0 0 0 0];

internalField   nonuniform List<scalar> 
400
(
0.0281233
0.0349263
0.044833
0.0475488
0.0468777
0.0451792
0.0439152
0.042934
0.0422414
0.0417927
0.0415493
0.0414756
0.0415459
0.0417653
0.0420628
0.0423837
0.0426631
0.0428524
0.0429455
0.0429953
0.0373825
0.04164
0.0468674
0.0469995
0.0448855
0.0424545
0.0406892
0.0397025
0.0395806
0.0402312
0.041469
0.0430543
0.0447207
0.0461801
0.047195
0.0475572
0.0472212
0.0462726
0.0450158
0.0438966
0.040936
0.045487
0.0477985
0.0460752
0.0431016
0.0407503
0.0399222
0.0408812
0.0435503
0.0475189
0.0521576
0.0567143
0.060421
0.0626229
0.0628452
0.0609823
0.0574144
0.0529812
0.0489042
0.046425
0.0428656
0.0476956
0.04862
0.0462569
0.0437202
0.0430578
0.0452899
0.0507093
0.0589011
0.0688055
0.0788362
0.0872548
0.0924635
0.0934323
0.0898723
0.0823442
0.072209
0.061484
0.0525694
0.047664
0.0440335
0.0494517
0.0503408
0.0487732
0.0484162
0.0517113
0.0599475
0.0733097
0.0905997
0.109284
0.125962
0.13738
0.14127
0.137069
0.125692
0.109164
0.090097
0.0714398
0.0564908
0.0485627
0.0447586
0.0512522
0.0533985
0.0541943
0.0580502
0.0680103
0.0856776
0.110772
0.14046
0.16955
0.191906
0.202668
0.199891
0.185154
0.162141
0.134997
0.107098
0.0810672
0.0601966
0.0492306
0.0451886
0.0531785
0.0577012
0.0623151
0.0722567
0.0912821
0.121237
0.160967
0.20514
0.244733
0.269963
0.274486
0.258217
0.22743
0.190286
0.15323
0.119283
0.0887244
0.0632908
0.0497088
0.0453448
0.0550513
0.0627668
0.0722017
0.0893029
0.118428
0.161531
0.216516
0.275389
0.324673
0.349795
0.342454
0.306279
0.255768
0.20426
0.159858
0.124109
0.0931464
0.0654739
0.0500189
0.0452572
0.0566109
0.0678628
0.0823987
0.106465
0.14455
0.198399
0.265327
0.335807
0.392826
0.416044
0.393088
0.334027
0.264694
0.202038
0.154312
0.121123
0.0939131
0.0665761
0.0501596
0.0449055
0.0575474
0.0721967
0.0913203
0.120833
0.164601
0.223407
0.29399
0.367264
0.426746
0.447489
0.408253
0.331636
0.251178
0.184459
0.138503
0.111449
0.0912163
0.0666265
0.0501558
0.044366
0.057474
0.0748488
0.0974128
0.129982
0.175099
0.231822
0.295699
0.358135
0.404955
0.418029
0.372568
0.294593
0.216415
0.154798
0.115792
0.0971878
0.0856742
0.0656738
0.050015
0.0436859
0.0562326
0.0751099
0.0995571
0.132526
0.17489
0.223863
0.27372
0.316458
0.341465
0.335765
0.293877
0.231
0.167575
0.118555
0.0901794
0.0808562
0.0781492
0.0638816
0.0497614
0.0429191
0.0538576
0.0725723
0.0971015
0.128113
0.164834
0.203269
0.237238
0.260018
0.265348
0.248049
0.210557
0.162696
0.116689
0.0825976
0.0654126
0.0648459
0.0697463
0.0613735
0.0493988
0.0421789
0.0506619
0.0673898
0.090087
0.117343
0.147051
0.174927
0.195466
0.203807
0.197191
0.175637
0.143312
0.10733
0.0752363
0.0533136
0.0450844
0.0509105
0.0614143
0.0582812
0.0489348
0.0416699
0.0471937
0.0603074
0.0792684
0.101464
0.123974
0.142926
0.154186
0.154769
0.143929
0.123504
0.0973327
0.0704779
0.0479779
0.0340412
0.031272
0.0404305
0.053973
0.0549327
0.0483681
0.0417553
0.0442594
0.0527821
0.0664552
0.0825966
0.0982053
0.110181
0.115817
0.113564
0.103505
0.0874289
0.0681994
0.0490925
0.0335244
0.0245587
0.024405
0.0341102
0.0480245
0.0516348
0.047719
0.0431728
0.0428119
0.0465663
0.054234
0.0638112
0.0729266
0.0794299
0.0817441
0.0791859
0.0720284
0.0614338
0.0491798
0.0372133
0.0276105
0.0224815
0.0236152
0.0320052
0.0439594
0.048646
0.0470163
0.0452457
0.0430136
0.0430856
0.0454612
0.049061
0.0525343
0.0547303
0.054903
0.0528204
0.0487019
0.0431529
0.0370245
0.0313422
0.0272222
0.0256804
0.027713
0.033764
0.0420202
0.0462403
0.046306
0.0461097
0.0443587
0.0430377
0.0424241
0.042283
0.0422244
0.0419152
0.041171
0.0399667
0.0384115
0.0367093
0.0351264
0.0339598
0.0335274
0.0340081
0.0357164
0.0386035
0.0422714
0.0446943
0.0456467
0.0446032
0.0442336
0.0438575
0.0434633
0.0430634
0.042684
0.0423448
0.0420569
0.0418342
0.0416871
0.0416255
0.0416567
0.0417822
0.042006
0.042318
0.0427149
0.0431751
0.0437146
0.0442014
0.0451704
)
;

boundaryField
{
    movingWall
    {
        type            zeroGradient;
    }
    fixedWalls
    {
        type            zeroGradient;
    }
    frontAndBack
    {
        type            empty;
    }
}


// ************************************************************************* //
