/*--------------------------------*- C++ -*----------------------------------*\
  =========                 |
  \\      /  F ield         | OpenFOAM: The Open Source CFD Toolbox
   \\    /   O peration     | Website:  https://openfoam.org
    \\  /    A nd           | Version:  11
     \\/     M anipulation  |
\*---------------------------------------------------------------------------*/
FoamFile
{
    format      ascii;
    class       volScalarField;
    location    "14";
    object      C;
}
// * * * * * * * * * * * * * * * * * * * * * * * * * * * * * * * * * * * * * //

dimensions      [0 0 0 0 0 0 0];

internalField   nonuniform List<scalar> 
400
(
0.011585
0.0233895
0.0552728
0.0430209
0.0319929
0.0290985
0.0283348
0.0292673
0.0311691
0.0336086
0.036267
0.0388958
0.0412677
0.0431087
0.0442988
0.0446838
0.0442961
0.043135
0.0413204
0.0390172
0.0287733
0.0445706
0.0477052
0.0334913
0.0266854
0.0271203
0.0318592
0.0400432
0.0499994
0.0601631
0.0691623
0.0759094
0.0796281
0.0800921
0.0773765
0.0718855
0.0647115
0.0572345
0.0511599
0.0478117
0.0403937
0.0485067
0.0373228
0.0246179
0.0228955
0.0300763
0.0445788
0.064134
0.0855282
0.10563
0.121582
0.131224
0.133379
0.128182
0.116587
0.100516
0.0825696
0.0657158
0.0530716
0.0470042
0.0456907
0.0454524
0.0278088
0.0174526
0.0205255
0.0353545
0.0607914
0.0935384
0.128631
0.160346
0.183142
0.193248
0.189685
0.174434
0.151171
0.124232
0.0972039
0.0728553
0.0542856
0.0449686
0.0479236
0.0411073
0.0198779
0.0107512
0.0169553
0.0381468
0.0740115
0.120779
0.171018
0.2147
0.242066
0.247362
0.231321
0.200421
0.163954
0.129658
0.100446
0.0753503
0.0547493
0.043692
0.0490465
0.0376367
0.0134014
0.00350012
0.0101769
0.03515
0.0800812
0.141472
0.208692
0.265341
0.295081
0.289446
0.252764
0.200082
0.149423
0.112209
0.0888111
0.0711224
0.0534345
0.0424276
0.0499358
0.0357404
0.00847514
-0.00408071
0.000529749
0.0269385
0.0803739
0.158761
0.247578
0.320874
0.351639
0.327586
0.260583
0.180888
0.116044
0.0788133
0.0657917
0.0611894
0.0505652
0.0411844
0.0509232
0.0357797
0.00565078
-0.0104962
-0.00914822
0.0179865
0.0812072
0.181121
0.298536
0.393596
0.422665
0.36891
0.260304
0.15188
0.0761252
0.0409605
0.0382581
0.0478445
0.0465596
0.0399318
0.0520518
0.0378631
0.00576008
-0.0135875
-0.0148591
0.0139339
0.0884662
0.212708
0.362947
0.482706
0.505599
0.40839
0.250434
0.117709
0.0381262
0.00770679
0.0127806
0.0338334
0.0419585
0.0386739
0.0531543
0.042204
0.00952081
-0.0113934
-0.0132162
0.0184055
0.102203
0.24366
0.417008
0.557112
0.573722
0.424476
0.227554
0.0826188
0.00687657
-0.0166432
-0.00678102
0.0211966
0.037268
0.0374364
0.0540383
0.0483413
0.0177702
-0.00287176
-0.00291229
0.0320979
0.119522
0.261694
0.428969
0.553631
0.554507
0.39263
0.194275
0.0546152
-0.01331
-0.0308495
-0.0191798
0.0110843
0.0328124
0.0362322
0.0544375
0.0553992
0.0304901
0.0120349
0.015208
0.0530019
0.137472
0.264611
0.401698
0.487571
0.458744
0.322535
0.161629
0.041922
-0.0188508
-0.0349257
-0.0248052
0.00392649
0.0288051
0.0350753
0.0539247
0.062117
0.0465237
0.0325249
0.039023
0.077488
0.153483
0.25722
0.357492
0.408355
0.374423
0.270253
0.145944
0.0466339
-0.00999991
-0.0297844
-0.0248992
-0.000266379
0.0253869
0.0339763
0.0518906
0.0667868
0.0632078
0.05648
0.0659652
0.102189
0.16608
0.245324
0.314349
0.343195
0.315022
0.239754
0.146245
0.0637298
0.00837631
-0.0181018
-0.0208467
-0.00179647
0.0227999
0.032948
0.0474911
0.0673116
0.0763642
0.0796318
0.0925379
0.124412
0.174553
0.231826
0.2779
0.294766
0.274093
0.221082
0.151287
0.082768
0.0290054
-0.00357596
-0.0139346
-0.000997468
0.0211654
0.032
0.0401527
0.062218
0.0814147
0.0954027
0.112812
0.14029
0.177252
0.216003
0.245144
0.254479
0.239382
0.20206
0.15021
0.0944226
0.0449702
0.0100245
-0.00548682
0.00186147
0.0205252
0.0311646
0.0325772
0.0520511
0.0753058
0.0965447
0.117726
0.1416
0.167615
0.191587
0.207669
0.21079
0.198524
0.171765
0.13416
0.0914979
0.0509215
0.0196832
0.00348207
0.00667076
0.0210012
0.030489
0.0322563
0.0424053
0.0607343
0.0809653
0.100764
0.119474
0.136059
0.148561
0.154751
0.15285
0.142242
0.123537
0.0989055
0.0715118
0.0452768
0.0244028
0.012523
0.0134132
0.0227175
0.0300221
0.036703
0.0371751
0.0451138
0.0557306
0.066574
0.0760108
0.0830017
0.0868661
0.087207
0.0839357
0.0773607
0.0680739
0.0570513
0.0455773
0.0350054
0.0266812
0.0215761
0.0217087
0.0257259
0.0298275
0.0391701
0.0377715
0.0369892
0.0371564
0.0378833
0.0386341
0.0390539
0.0390094
0.0384898
0.0375709
0.0363639
0.0349924
0.0335782
0.0322276
0.0310358
0.0300854
0.0293997
0.029161
0.029164
0.0299196
)
;

boundaryField
{
    movingWall
    {
        type            zeroGradient;
    }
    fixedWalls
    {
        type            zeroGradient;
    }
    frontAndBack
    {
        type            empty;
    }
}


// ************************************************************************* //
