/*--------------------------------*- C++ -*----------------------------------*\
  =========                 |
  \\      /  F ield         | OpenFOAM: The Open Source CFD Toolbox
   \\    /   O peration     | Website:  https://openfoam.org
    \\  /    A nd           | Version:  11
     \\/     M anipulation  |
\*---------------------------------------------------------------------------*/
FoamFile
{
    format      ascii;
    class       volScalarField;
    location    "10.375";
    object      C;
}
// * * * * * * * * * * * * * * * * * * * * * * * * * * * * * * * * * * * * * //

dimensions      [0 0 0 0 0 0 0];

internalField   nonuniform List<scalar> 
400
(
-8.06063e-05
-0.00434455
0.0640684
0.246802
0.105747
-0.0260348
-0.0052277
0.00428954
-0.000610187
-0.000388041
0.000195495
7.16823e-06
-4.37192e-05
7.21009e-06
1.42416e-05
-1.07676e-06
-6.03388e-06
-1.22056e-06
2.34996e-06
1.20709e-06
-0.00614776
0.035188
0.179312
0.195081
0.0368569
-0.0230757
0.000504105
0.00261161
-0.000874235
-0.000104853
0.000221063
5.38843e-06
-4.59654e-05
-2.02415e-05
-1.48647e-06
2.13642e-06
-7.05432e-06
-8.82106e-06
-2.94196e-06
-2.50163e-06
-0.00207687
0.1106
0.23198
0.13985
-0.00403375
-0.0183781
0.00435828
0.00260354
-0.00119299
-0.000648136
9.03406e-05
0.000174623
5.9455e-05
-3.8507e-05
-6.65326e-05
-2.02269e-05
7.22551e-06
3.70959e-06
-1.2415e-05
-0.000114085
0.00750455
0.166034
0.261649
0.11709
-0.0226739
-0.0253093
0.00179253
0.0060062
0.00205541
-0.000641636
-0.00109176
-0.000459218
6.50643e-05
0.000203574
4.33804e-05
3.48971e-06
0.000109204
0.000109176
3.85129e-05
-0.000305073
0.0108444
0.196346
0.304544
0.153614
-0.00668609
-0.0403188
-0.0218338
-0.00393466
0.00506717
0.00525008
0.00157246
-0.000623152
-0.000503037
0.000548115
0.000781392
0.000363435
0.000406842
0.000296856
0.000233502
0.00045547
0.0066402
0.198
0.357495
0.261419
0.0951788
0.00278347
-0.0326892
-0.036161
-0.0193955
-6.60773e-05
0.00796907
0.00521687
0.000691241
9.75037e-05
0.00153917
0.000828794
0.000685939
0.00019667
0.000368223
0.0050374
-0.000706313
0.168989
0.383656
0.396959
0.292142
0.183806
0.084668
0.00141936
-0.0425355
-0.0386374
-0.0108392
0.00530643
0.00238778
-0.00454253
-0.00152375
-0.00101388
-0.000408425
-0.0011987
-0.000193129
0.0180807
-0.0063174
0.117348
0.348593
0.470584
0.480874
0.44593
0.368934
0.239947
0.0850934
-0.0316087
-0.0616141
-0.0321466
-0.00892014
-0.0193928
-0.0140864
-0.00938754
-0.00547631
-0.00550333
-0.00188475
0.0445813
-0.00758989
0.0618606
0.255356
0.424805
0.525719
0.592158
0.62835
0.6015
0.461745
0.214527
-0.0105412
-0.066811
-0.0190207
-0.0302827
-0.0285953
-0.0224567
-0.0152855
-0.0139162
-0.00329172
0.0874302
-0.00536183
0.0200493
0.1427
0.287062
0.402666
0.506356
0.616271
0.730912
0.820444
0.765668
0.428754
0.129249
0.087535
0.0345531
-0.0010689
-0.0183453
-0.0219786
-0.0245632
0.000376138
0.144755
-0.00240971
-0.000596993
0.053498
0.135899
0.210088
0.281377
0.369493
0.492272
0.663523
0.950377
1.05223
0.678798
0.428074
0.261342
0.134337
0.0457667
-0.00435442
-0.0287741
0.017771
0.208616
-0.00047191
-0.00522571
0.00673252
0.0344626
0.0601929
0.0837788
0.116087
0.171436
0.233791
0.487506
0.800487
0.89859
0.775517
0.57745
0.377744
0.198507
0.0643408
-0.00933218
0.0580776
0.265993
0.000201229
-0.00313984
-0.00634312
-0.00603194
-0.00669661
-0.00859755
-0.00867642
0.00553231
-0.0149376
0.0451218
0.236586
0.495349
0.674776
0.700181
0.591254
0.400032
0.193044
0.0541192
0.125763
0.302762
0.00017432
-0.000725553
-0.00460278
-0.00998332
-0.0160438
-0.0216988
-0.0280603
-0.0216628
-0.0398801
-0.0664792
-0.0405307
0.0872977
0.299919
0.50319
0.600164
0.540339
0.350228
0.17001
0.213367
0.308462
3.173e-05
0.000166519
-0.00115797
-0.00401591
-0.00724242
-0.00933385
-0.0130234
-0.00884343
-0.00702605
-0.0237035
-0.0495252
-0.0514715
0.0240553
0.195894
0.40538
0.529271
0.469137
0.315777
0.296295
0.279788
-1.23092e-05
0.000155213
0.000148525
-0.000315794
-0.000958653
-0.000665746
-0.00177129
-0.00125468
0.00357784
0.00552362
-0.00481333
-0.0297523
-0.0467609
0.00292227
0.164049
0.379331
0.487031
0.432338
0.338246
0.221246
-4.31449e-06
2.54564e-05
0.00016353
0.000350428
0.000408349
0.00095835
0.00101867
0.000109424
0.000678763
0.00418485
0.00729626
0.00196478
-0.020805
-0.0410007
0.0104633
0.180371
0.381302
0.442491
0.306867
0.145101
2.35204e-07
-7.63383e-06
1.76762e-05
0.000131767
0.000129594
0.000282903
0.000576792
0.000257572
-0.000682657
-0.00065544
0.00226602
0.00637897
0.00223051
-0.0195279
-0.0343145
0.0228142
0.183712
0.302123
0.197849
0.0679969
6.26787e-07
-2.41503e-06
-1.75502e-05
2.61006e-05
-1.84487e-05
-9.12593e-05
3.56663e-05
0.000248963
3.58131e-05
-0.000795331
-0.00116146
0.000823881
0.00488966
0.00408846
-0.012222
-0.0331571
0.00274755
0.08441
0.056041
0.00554899
-2.2064e-07
1.99049e-06
-5.37154e-06
1.24716e-07
3.50351e-06
-1.6214e-05
-3.25193e-05
-3.4453e-06
4.73398e-05
2.80687e-05
-9.59772e-05
-0.000186756
-1.18926e-05
0.000228258
0.000239427
0.000211224
0.000389842
0.00347206
-0.0280933
-0.0311893
)
;

boundaryField
{
    movingWall
    {
        type            zeroGradient;
    }
    fixedWalls
    {
        type            zeroGradient;
    }
    frontAndBack
    {
        type            empty;
    }
}


// ************************************************************************* //
