/*--------------------------------*- C++ -*----------------------------------*\
  =========                 |
  \\      /  F ield         | OpenFOAM: The Open Source CFD Toolbox
   \\    /   O peration     | Website:  https://openfoam.org
    \\  /    A nd           | Version:  11
     \\/     M anipulation  |
\*---------------------------------------------------------------------------*/
FoamFile
{
    format      ascii;
    class       volScalarField;
    location    "13.75";
    object      C;
}
// * * * * * * * * * * * * * * * * * * * * * * * * * * * * * * * * * * * * * //

dimensions      [0 0 0 0 0 0 0];

internalField   nonuniform List<scalar> 
400
(
0.0108554
0.0212819
0.0519632
0.0620743
0.0518055
0.0441476
0.0394268
0.0357453
0.0329419
0.0308252
0.0293163
0.0283712
0.0279824
0.0282236
0.02894
0.0300168
0.0312453
0.032461
0.0335983
0.0347723
0.025663
0.0420529
0.0584035
0.0536624
0.0402494
0.030035
0.0223009
0.0166943
0.0135192
0.0127873
0.0143367
0.0178247
0.0226968
0.0280886
0.0332898
0.0374311
0.0398041
0.0399661
0.0380895
0.0351829
0.0360078
0.0541204
0.0566541
0.0420165
0.0257094
0.0133447
0.00470258
0.000452304
0.00101516
0.00624249
0.0154928
0.0275229
0.0405891
0.0526694
0.0616343
0.06586
0.0647735
0.0591917
0.0515542
0.0455454
0.0428414
0.0594394
0.05208
0.0316959
0.0129618
-0.00123741
-0.0101804
-0.0120878
-0.00565205
0.00923118
0.0310262
0.0564877
0.0812077
0.100497
0.110621
0.109828
0.0988561
0.0810429
0.0621558
0.0495886
0.0471715
0.0625752
0.0494312
0.0259426
0.00532942
-0.0103923
-0.0190219
-0.0167977
-0.000889876
0.0286657
0.0680108
0.110043
0.146348
0.169586
0.17575
0.164739
0.139677
0.106224
0.073008
0.0518978
0.0498919
0.0661647
0.0513269
0.0274685
0.00706594
-0.00760513
-0.0124302
-0.00146846
0.0289839
0.0771185
0.134658
0.189053
0.227972
0.244655
0.2389
0.214542
0.176528
0.129708
0.0828663
0.0532823
0.0515493
0.0711399
0.0587709
0.0382566
0.0224497
0.0147315
0.021198
0.0492733
0.101582
0.171203
0.241723
0.293781
0.314779
0.307403
0.280583
0.243021
0.198942
0.146828
0.090555
0.0540078
0.0521797
0.0772825
0.0714363
0.0585266
0.0527877
0.0591784
0.0854412
0.139573
0.221
0.313362
0.386489
0.412923
0.389246
0.341379
0.28848
0.2414
0.200796
0.154276
0.0952468
0.0542089
0.0518026
0.0836795
0.0877229
0.0860334
0.0944308
0.118985
0.167879
0.248942
0.35839
0.469265
0.532909
0.510563
0.424382
0.333793
0.260445
0.211243
0.182554
0.151374
0.0965671
0.0539302
0.050143
0.0890424
0.105076
0.116405
0.139644
0.180312
0.24412
0.336085
0.450771
0.560849
0.606583
0.527555
0.392412
0.279473
0.203038
0.161718
0.149812
0.13952
0.0947916
0.0532776
0.0474909
0.0912299
0.120052
0.144215
0.17928
0.228772
0.293207
0.371579
0.454427
0.515716
0.52201
0.421749
0.288552
0.188525
0.129606
0.105126
0.110637
0.121427
0.0903282
0.0523065
0.044026
0.088851
0.128856
0.164101
0.205929
0.255288
0.307449
0.355677
0.388506
0.387176
0.335146
0.242057
0.150982
0.0884673
0.0576636
0.0528987
0.0729148
0.100329
0.0839125
0.0511115
0.0399885
0.0813907
0.128208
0.171441
0.215212
0.257779
0.291681
0.308243
0.298785
0.256578
0.184321
0.105079
0.0441454
0.0115534
0.0034154
0.0129663
0.0420722
0.0796142
0.0761694
0.0497305
0.0359311
0.0696802
0.116746
0.163355
0.205575
0.238937
0.256091
0.25036
0.218453
0.162937
0.095073
0.0328188
-0.00920833
-0.0270055
-0.0254664
-0.0106191
0.020448
0.061722
0.0677393
0.048204
0.0328776
0.0559216
0.0959798
0.139738
0.177596
0.20268
0.20904
0.193414
0.157019
0.106285
0.0522747
0.00648712
-0.0232803
-0.0352375
-0.0326186
-0.0191663
0.00860845
0.0480457
0.0595882
0.0465329
0.0323697
0.0437796
0.0711667
0.105248
0.135237
0.153321
0.154886
0.139061
0.108951
0.0708528
0.0326473
0.0012264
-0.0194136
-0.0283215
-0.0270383
-0.0170077
0.0052993
0.039008
0.0523579
0.0447829
0.0357748
0.0369248
0.0495983
0.0692833
0.0878138
0.098669
0.0984719
0.0871347
0.0673599
0.0434661
0.0200862
0.00101683
-0.0116012
-0.0171707
-0.0160974
-0.00835095
0.00864226
0.0343594
0.0463656
0.0430214
0.0398213
0.0355331
0.0369204
0.0427716
0.0491044
0.0523282
0.0505923
0.0438925
0.0336539
0.0219767
0.0109749
0.00232115
-0.00296091
-0.0043083
-0.0017757
0.00507085
0.0170768
0.0334186
0.0417467
0.0413313
0.0411806
0.0385141
0.0357843
0.0341687
0.0330121
0.0314723
0.0291099
0.0259789
0.0224803
0.0191649
0.0165491
0.0150427
0.014883
0.0161966
0.0188394
0.0229992
0.0285545
0.0349022
0.038488
0.0398032
0.0337516
0.0330216
0.0324986
0.0319942
0.0314252
0.030854
0.0303657
0.0300186
0.0298512
0.0298772
0.0300958
0.0304965
0.0310588
0.0317689
0.032592
0.0335231
0.0345279
0.0356351
0.0365841
0.038691
)
;

boundaryField
{
    movingWall
    {
        type            zeroGradient;
    }
    fixedWalls
    {
        type            zeroGradient;
    }
    frontAndBack
    {
        type            empty;
    }
}


// ************************************************************************* //
