/*--------------------------------*- C++ -*----------------------------------*\
  =========                 |
  \\      /  F ield         | OpenFOAM: The Open Source CFD Toolbox
   \\    /   O peration     | Website:  https://openfoam.org
    \\  /    A nd           | Version:  11
     \\/     M anipulation  |
\*---------------------------------------------------------------------------*/
FoamFile
{
    format      ascii;
    class       volScalarField;
    location    "14.5";
    object      C;
}
// * * * * * * * * * * * * * * * * * * * * * * * * * * * * * * * * * * * * * //

dimensions      [0 0 0 0 0 0 0];

internalField   nonuniform List<scalar> 
400
(
3.53548e-79
1.73494e-74
7.57618e-70
2.89801e-65
9.5121e-61
2.60465e-56
5.712e-52
9.4052e-48
1.03357e-43
5.68572e-40
5.68572e-40
1.03348e-43
9.40335e-48
5.71014e-52
2.6034e-56
9.50593e-61
2.89557e-65
7.5682e-70
1.73271e-74
3.53003e-79
1.73494e-74
8.52305e-70
3.72593e-65
1.42679e-60
4.68826e-56
1.28517e-51
2.82147e-47
4.65085e-43
5.1166e-39
2.81777e-35
2.81777e-35
5.11626e-39
4.65013e-43
2.82073e-47
1.28467e-51
4.68577e-56
1.4258e-60
3.72268e-65
8.51392e-70
1.73271e-74
7.57618e-70
3.72593e-65
1.63061e-60
6.251e-56
2.05626e-51
5.6429e-47
1.24021e-42
2.04658e-38
2.25402e-34
1.24268e-30
1.24268e-30
2.2539e-34
2.04634e-38
1.23996e-42
5.64118e-47
2.05539e-51
6.24752e-56
1.62946e-60
3.72268e-65
7.5682e-70
2.89801e-65
1.42679e-60
6.251e-56
2.39897e-51
7.90004e-47
2.17036e-42
4.77531e-38
7.88885e-34
8.69801e-30
4.80066e-26
4.80066e-26
8.69769e-30
7.88816e-34
4.77458e-38
2.16985e-42
7.89746e-47
2.39793e-51
6.24752e-56
1.4258e-60
2.89557e-65
9.5121e-61
4.68826e-56
2.05626e-51
7.90004e-47
2.60442e-42
7.16293e-38
1.57775e-33
2.60933e-29
2.88015e-25
1.59139e-21
1.59139e-21
2.88008e-25
2.60918e-29
1.57758e-33
7.16171e-38
2.60379e-42
7.89746e-47
2.05539e-51
4.68577e-56
9.50593e-61
2.60465e-56
1.28517e-51
5.6429e-47
2.17036e-42
7.16293e-38
1.97218e-33
4.34885e-29
7.2002e-25
7.95627e-21
4.40099e-17
4.40099e-17
7.95615e-21
7.19992e-25
4.34853e-29
1.97195e-33
7.16171e-38
2.16985e-42
5.64118e-47
1.28467e-51
2.6034e-56
5.712e-52
2.82147e-47
1.24021e-42
4.77531e-38
1.57775e-33
4.34885e-29
9.60021e-25
1.59122e-20
1.76025e-16
9.74758e-13
9.74758e-13
1.76024e-16
1.59118e-20
9.59979e-25
4.34853e-29
1.57758e-33
4.77458e-38
1.23996e-42
2.82073e-47
5.71014e-52
9.4052e-48
4.65085e-43
2.04658e-38
7.88885e-34
2.60933e-29
7.2002e-25
1.59122e-20
2.64034e-16
2.92405e-12
1.62102e-08
1.62102e-08
2.92405e-12
2.64031e-16
1.59118e-20
7.19992e-25
2.60918e-29
7.88816e-34
2.04634e-38
4.65013e-43
9.40335e-48
1.03357e-43
5.1166e-39
2.25402e-34
8.69801e-30
2.88015e-25
7.95627e-21
1.76025e-16
2.92405e-12
3.24185e-08
0.000179919
0.000179919
3.24185e-08
2.92405e-12
1.76024e-16
7.95615e-21
2.88008e-25
8.69769e-30
2.2539e-34
5.11626e-39
1.03348e-43
5.68572e-40
2.81777e-35
1.24268e-30
4.80066e-26
1.59139e-21
4.40099e-17
9.74758e-13
1.62102e-08
0.000179919
0.99964
0.99964
0.000179919
1.62102e-08
9.74758e-13
4.40099e-17
1.59139e-21
4.80066e-26
1.24268e-30
2.81777e-35
5.68572e-40
5.68572e-40
2.81777e-35
1.24268e-30
4.80066e-26
1.59139e-21
4.40099e-17
9.74758e-13
1.62102e-08
0.000179919
0.99964
0.99964
0.000179919
1.62102e-08
9.74758e-13
4.40099e-17
1.59139e-21
4.80066e-26
1.24268e-30
2.81777e-35
5.68572e-40
1.03348e-43
5.11626e-39
2.2539e-34
8.69769e-30
2.88008e-25
7.95615e-21
1.76024e-16
2.92405e-12
3.24185e-08
0.000179919
0.000179919
3.24185e-08
2.92405e-12
1.76025e-16
7.95627e-21
2.88015e-25
8.69801e-30
2.25402e-34
5.1166e-39
1.03357e-43
9.40335e-48
4.65013e-43
2.04634e-38
7.88816e-34
2.60918e-29
7.19992e-25
1.59118e-20
2.64031e-16
2.92405e-12
1.62102e-08
1.62102e-08
2.92405e-12
2.64034e-16
1.59122e-20
7.2002e-25
2.60933e-29
7.88885e-34
2.04658e-38
4.65085e-43
9.4052e-48
5.71014e-52
2.82073e-47
1.23996e-42
4.77458e-38
1.57758e-33
4.34853e-29
9.59979e-25
1.59118e-20
1.76024e-16
9.74758e-13
9.74758e-13
1.76025e-16
1.59122e-20
9.60021e-25
4.34885e-29
1.57775e-33
4.77531e-38
1.24021e-42
2.82147e-47
5.712e-52
2.6034e-56
1.28467e-51
5.64118e-47
2.16985e-42
7.16171e-38
1.97195e-33
4.34853e-29
7.19992e-25
7.95615e-21
4.40099e-17
4.40099e-17
7.95627e-21
7.2002e-25
4.34885e-29
1.97218e-33
7.16293e-38
2.17036e-42
5.6429e-47
1.28517e-51
2.60465e-56
9.50593e-61
4.68577e-56
2.05539e-51
7.89746e-47
2.60379e-42
7.16171e-38
1.57758e-33
2.60918e-29
2.88008e-25
1.59139e-21
1.59139e-21
2.88015e-25
2.60933e-29
1.57775e-33
7.16293e-38
2.60442e-42
7.90004e-47
2.05626e-51
4.68826e-56
9.5121e-61
2.89557e-65
1.4258e-60
6.24752e-56
2.39793e-51
7.89746e-47
2.16985e-42
4.77458e-38
7.88816e-34
8.69769e-30
4.80066e-26
4.80066e-26
8.69801e-30
7.88885e-34
4.77531e-38
2.17036e-42
7.90004e-47
2.39897e-51
6.251e-56
1.42679e-60
2.89801e-65
7.5682e-70
3.72268e-65
1.62946e-60
6.24752e-56
2.05539e-51
5.64118e-47
1.23996e-42
2.04634e-38
2.2539e-34
1.24268e-30
1.24268e-30
2.25402e-34
2.04658e-38
1.24021e-42
5.6429e-47
2.05626e-51
6.251e-56
1.63061e-60
3.72593e-65
7.57618e-70
1.73271e-74
8.51392e-70
3.72268e-65
1.4258e-60
4.68577e-56
1.28467e-51
2.82073e-47
4.65013e-43
5.11626e-39
2.81777e-35
2.81777e-35
5.1166e-39
4.65085e-43
2.82147e-47
1.28517e-51
4.68826e-56
1.42679e-60
3.72593e-65
8.52305e-70
1.73494e-74
3.53003e-79
1.73271e-74
7.5682e-70
2.89557e-65
9.50593e-61
2.6034e-56
5.71014e-52
9.40335e-48
1.03348e-43
5.68572e-40
5.68572e-40
1.03357e-43
9.4052e-48
5.712e-52
2.60465e-56
9.5121e-61
2.89801e-65
7.57618e-70
1.73494e-74
3.53548e-79
)
;

boundaryField
{
    movingWall
    {
        type            zeroGradient;
    }
    fixedWalls
    {
        type            zeroGradient;
    }
    frontAndBack
    {
        type            empty;
    }
}


// ************************************************************************* //
