/*--------------------------------*- C++ -*----------------------------------*\
  =========                 |
  \\      /  F ield         | OpenFOAM: The Open Source CFD Toolbox
   \\    /   O peration     | Website:  https://openfoam.org
    \\  /    A nd           | Version:  11
     \\/     M anipulation  |
\*---------------------------------------------------------------------------*/
FoamFile
{
    format      ascii;
    class       volScalarField;
    location    "11.75";
    object      C;
}
// * * * * * * * * * * * * * * * * * * * * * * * * * * * * * * * * * * * * * //

dimensions      [0 0 0 0 0 0 0];

internalField   nonuniform List<scalar> 
400
(
0.00357146
0.0165322
0.0637613
0.0341518
0.0077565
0.00870813
0.00661369
0.00486338
0.00331183
0.0019857
0.00108391
0.000800249
0.00133819
0.00283694
0.00517866
0.00800818
0.0107003
0.0123141
0.0119244
0.00922378
0.0232275
0.0479654
0.0471595
0.0160138
0.00359417
0.00291118
-0.000700422
-0.00356829
-0.00549649
-0.00558614
-0.00299352
0.00281143
0.0117971
0.0231638
0.0354478
0.0462966
0.0531866
0.0539581
0.0481966
0.0385156
0.039667
0.0527194
0.0282676
0.00452409
0.000780661
-0.000856687
-0.004511
-0.00725198
-0.00793542
-0.00443948
0.00499803
0.021043
0.042661
0.0669756
0.0893238
0.104502
0.10844
0.0999852
0.0829806
0.0672177
0.0480112
0.0474603
0.0144316
-0.000777697
-0.00027282
-0.00245642
-0.00679704
-0.010321
-0.00952605
0.000193387
0.02192
0.0552431
0.0953837
0.134147
0.162694
0.174388
0.166227
0.139622
0.102627
0.0728526
0.052239
0.0414319
0.00539291
-0.00404603
-0.00265093
-0.00714723
-0.0145717
-0.0196141
-0.0143613
0.00934338
0.0545761
0.115618
0.178648
0.227081
0.250542
0.247349
0.220855
0.17497
0.117798
0.0730286
0.055162
0.0381772
-0.000210051
-0.00761762
-0.00840675
-0.0182014
-0.031378
-0.0374365
-0.0216386
0.0280112
0.110295
0.205977
0.285522
0.326346
0.326151
0.297428
0.253586
0.19686
0.127042
0.0717285
0.0580666
0.0391915
-0.00196166
-0.0095823
-0.0126649
-0.0263791
-0.0414087
-0.0401263
-0.000580065
0.089246
0.214161
0.331393
0.396414
0.399498
0.357903
0.30132
0.250461
0.199254
0.128992
0.0696012
0.0611813
0.0456177
0.00244342
-0.00438657
-0.00397582
-0.0109151
-0.0114917
0.0186357
0.104109
0.245129
0.39585
0.485258
0.478311
0.415124
0.328833
0.253898
0.210214
0.18133
0.123823
0.0669717
0.0641111
0.057927
0.0158603
0.0136649
0.0274619
0.042924
0.0767993
0.15778
0.306442
0.49549
0.629771
0.61528
0.48714
0.357703
0.24777
0.172944
0.146022
0.148189
0.112851
0.0639583
0.0656199
0.0761023
0.0397139
0.0465116
0.0819635
0.128986
0.200444
0.319226
0.49357
0.680189
0.758695
0.609363
0.388282
0.237846
0.143094
0.0877731
0.0782762
0.108142
0.0984001
0.0607724
0.0646485
0.0966024
0.0740667
0.0908931
0.148014
0.222293
0.313043
0.427709
0.554294
0.628921
0.588734
0.39665
0.202312
0.0967842
0.048429
0.0228672
0.0247088
0.0696173
0.0826009
0.0575284
0.0601698
0.113818
0.114387
0.14057
0.209593
0.294691
0.378084
0.451699
0.495578
0.455443
0.310671
0.1362
0.0279233
-0.00814115
-0.0107477
-0.0118132
-0.00637574
0.0387579
0.0674285
0.0543657
0.0514072
0.121357
0.150832
0.186829
0.254409
0.329974
0.385751
0.406501
0.380748
0.288965
0.147917
0.0232836
-0.0388141
-0.0446342
-0.0280949
-0.0198142
-0.0179662
0.0184328
0.0541569
0.0513436
0.0386697
0.114265
0.170555
0.218202
0.27614
0.328423
0.349717
0.327696
0.264262
0.168147
0.0657353
-0.00892295
-0.0402438
-0.0367275
-0.0201711
-0.0132533
-0.0175076
0.00770298
0.0437521
0.0485147
0.0246872
0.0918131
0.162816
0.221216
0.269784
0.29836
0.291883
0.246614
0.173505
0.0916544
0.0225249
-0.0190535
-0.0313044
-0.0234453
-0.00974793
-0.00552059
-0.0127461
0.0037983
0.0364906
0.0458888
0.0158864
0.0615607
0.127664
0.187824
0.229657
0.244056
0.225246
0.176944
0.112739
0.0502432
0.00378128
-0.0205175
-0.0246308
-0.0164874
-0.00611723
-0.00332315
-0.00886025
0.00381446
0.0318898
0.0435291
0.0188533
0.0361439
0.0790719
0.12569
0.158237
0.167209
0.150863
0.114993
0.0706372
0.0296298
0.000315899
-0.0144811
-0.0170627
-0.0127168
-0.00732831
-0.00554798
-0.0064846
0.0060857
0.0294428
0.0414813
0.0394079
0.0273638
0.0393133
0.0605471
0.0771102
0.0814932
0.0726441
0.0541763
0.0320064
0.011815
-0.00269301
-0.0104326
-0.0125301
-0.0112533
-0.00885812
-0.00623131
-0.00215797
0.0108011
0.0289484
0.0397813
0.0629209
0.0340899
0.0254312
0.0242778
0.0246872
0.0233118
0.0193238
0.0135352
0.00739139
0.00220373
-0.00124818
-0.00277357
-0.00267004
-0.00124938
0.000968069
0.00467673
0.0100335
0.0198495
0.0307654
0.0385011
0.0774399
0.0679393
0.0578137
0.0492042
0.0426194
0.0378157
0.034396
0.0320172
0.0304452
0.0294918
0.029013
0.028901
0.0290696
0.0294924
0.030131
0.0309719
0.0319396
0.033355
0.034758
0.0377939
)
;

boundaryField
{
    movingWall
    {
        type            zeroGradient;
    }
    fixedWalls
    {
        type            zeroGradient;
    }
    frontAndBack
    {
        type            empty;
    }
}


// ************************************************************************* //
